! Sonnet Data File
! From: emclient Version : 13.56
! From Project: Coupling5_rescale2_full_23pH_nolineinductance
! Data is De-embedded 
! Data File Written: 06/30/2014 09:54:47
!< HDATE 06/16/2014 12:42:39
!< MDATE 06/16/2014 12:52:41
# GHZ S RI R 0.020000
1.000000000000000 0.9501604989022 -0.014283766733 -4.681017361e-3 -0.311398600527 -4.681017362e-3 -0.311398600528 0.9501605208305 -0.014282307972
!< P1 F=1.0 Eeff=(undefined: mp) Z0=(undefined: mp) R=0.0 C=0.0 
!< P2 F=1.0 Eeff=(undefined: mp) Z0=(undefined: mp) R=0.0 C=0.0 
1.100000000000000 0.4334032133359 -0.440021299992 -0.560315745012 -0.551895983058 -0.560315745012 -0.551895983058 0.4334092709471 -0.440015333407
!< P1 F=1.1 Eeff=(undefined: mp) Z0=(undefined: mp) R=0.0 C=0.0 
!< P2 F=1.1 Eeff=(undefined: mp) Z0=(undefined: mp) R=0.0 C=0.0 
1.200000000000000 0.9498576063926 0.2066461923843 -0.049883013047 0.2293023413759 -0.049883013047 0.2293023413759 0.9498624913974 0.2066237369838
!< P1 F=1.2 Eeff=(undefined: mp) Z0=(undefined: mp) R=0.0 C=0.0 
!< P2 F=1.2 Eeff=(undefined: mp) Z0=(undefined: mp) R=0.0 C=0.0 
1.300000000000000 0.9902281203367 -4.727958874e-3 6.6796293570e-4 0.1393752844839 6.6796293569e-4 0.1393752844840 0.9902279501254 -4.763474674e-3
!< P1 F=1.3 Eeff=(undefined: mp) Z0=(undefined: mp) R=0.0 C=0.0 
!< P2 F=1.3 Eeff=(undefined: mp) Z0=(undefined: mp) R=0.0 C=0.0 
1.400000000000000 0.9544468850369 -0.220449778753 0.0452537447332 0.1959212527491 0.0452537447332 0.1959212527491 0.9544435298736 -0.220464304574
!< P1 F=1.4 Eeff=(undefined: mp) Z0=(undefined: mp) R=0.0 C=0.0 
!< P2 F=1.4 Eeff=(undefined: mp) Z0=(undefined: mp) R=0.0 C=0.0 
1.410000000000000 0.9414528090582 -0.253110892947 0.0578254604411 0.2150760337939 0.0578254604411 0.2150760337938 0.9414484834651 -0.253126981559
!< P1 F=1.41 Eeff=(undefined: mp) Z0=(undefined: mp) R=0.0 C=0.0 
!< P2 F=1.41 Eeff=(undefined: mp) Z0=(undefined: mp) R=0.0 C=0.0 
1.420000000000000 0.9235546792748 -0.290404602279 0.0751200359731 0.2388909825845 0.0751200359731 0.2388909825845 0.9235488817699 -0.290423039060
!< P1 F=1.42 Eeff=(undefined: mp) Z0=(undefined: mp) R=0.0 C=0.0 
!< P2 F=1.42 Eeff=(undefined: mp) Z0=(undefined: mp) R=0.0 C=0.0 
1.430000000000000 0.8981528286820 -0.333583768707 0.0997309469487 0.2685090385935 0.0997309469488 0.2685090385936 0.8981446232593 -0.333605860447
!< P1 F=1.43 Eeff=(undefined: mp) Z0=(undefined: mp) R=0.0 C=0.0 
!< P2 F=1.43 Eeff=(undefined: mp) Z0=(undefined: mp) R=0.0 C=0.0 
1.440000000000000 0.8607707814279 -0.383989755339 0.1361192301471 0.3051181489493 0.1361192301469 0.3051181489492 0.8607580683213 -0.384018252411
!< P1 F=1.44 Eeff=(undefined: mp) Z0=(undefined: mp) R=0.0 C=0.0 
!< P2 F=1.44 Eeff=(undefined: mp) Z0=(undefined: mp) R=0.0 C=0.0 
1.450000000000000 0.8034095542533 -0.442403130795 0.1922366592544 0.3490811149765 0.1922366592565 0.3490811149752 0.8033848836819 -0.442447929897
!< P1 F=1.45 Eeff=(undefined: mp) Z0=(undefined: mp) R=0.0 C=0.0 
!< P2 F=1.45 Eeff=(undefined: mp) Z0=(undefined: mp) R=0.0 C=0.0 
1.451000000000000 0.7960925943492 -0.448663901967 0.1994088175352 0.3537985412361 0.1994088175337 0.3537985412370 0.7960653946436 -0.448712160700
!< P1 F=1.451 Eeff=(undefined: mp) Z0=(undefined: mp) R=0.0 C=0.0 
!< P2 F=1.451 Eeff=(undefined: mp) Z0=(undefined: mp) R=0.0 C=0.0 
1.452000000000000 0.7884191620650 -0.454995489853 0.2069311556171 0.3585440362617 0.2069311556146 0.3585440362631 0.7883888086539 -0.455048082398
!< P1 F=1.452 Eeff=(undefined: mp) Z0=(undefined: mp) R=0.0 C=0.0 
!< P2 F=1.452 Eeff=(undefined: mp) Z0=(undefined: mp) R=0.0 C=0.0 
1.453000000000000 0.7803678681435 -0.461399766656 0.2148231076139 0.3633005341788 0.2148231075998 0.3633005341877 0.7803334532356 -0.461457967855
!< P1 F=1.453 Eeff=(undefined: mp) Z0=(undefined: mp) R=0.0 C=0.0 
!< P2 F=1.453 Eeff=(undefined: mp) Z0=(undefined: mp) R=0.0 C=0.0 
1.454000000000000 0.7719157030284 -0.467884159085 0.2231042524620 0.3680421900090 0.2231042524615 0.3680421900099 0.7718757982694 -0.467949987659
!< P1 F=1.454 Eeff=(undefined: mp) Z0=(undefined: mp) R=0.0 C=0.0 
!< P2 F=1.454 Eeff=(undefined: mp) Z0=(undefined: mp) R=0.0 C=0.0 
1.455000000000000 0.7630368019059 -0.474470101656 0.2317937662780 0.3727259200714 0.2317937662812 0.3727259200693 0.7629889905812 -0.474546982577
!< P1 F=1.455 Eeff=(undefined: mp) Z0=(undefined: mp) R=0.0 C=0.0 
!< P2 F=1.455 Eeff=(undefined: mp) Z0=(undefined: mp) R=0.0 C=0.0 
1.456000000000000 0.7537002745986 -0.481216454373 0.2409075137322 0.3772667357916 0.2409075137318 0.3772667357921 0.7536399215404 -0.481310968658
!< P1 F=1.456 Eeff=(undefined: mp) Z0=(undefined: mp) R=0.0 C=0.0 
!< P2 F=1.456 Eeff=(undefined: mp) Z0=(undefined: mp) R=0.0 C=0.0 
1.457000000000000 0.7438612130082 -0.488306685219 0.2504480438330 0.3814483638643 0.2504480438338 0.3814483638640 0.7437775017321 -0.488434182836
!< P1 F=1.457 Eeff=(undefined: mp) Z0=(undefined: mp) R=0.0 C=0.0 
!< P2 F=1.457 Eeff=(undefined: mp) Z0=(undefined: mp) R=0.0 C=0.0 
1.458000000000000 0.7334076172189 -0.496556099122 0.2603434536171 0.3844042059946 0.2603434536158 0.3844042059955 0.7332635973289 -0.496768748418
!< P1 F=1.458 Eeff=(undefined: mp) Z0=(undefined: mp) R=0.0 C=0.0 
!< P2 F=1.458 Eeff=(undefined: mp) Z0=(undefined: mp) R=0.0 C=0.0 
1.458100000000000 0.7323147875057 -0.497562679632 0.2613391155292 0.3845104660920 0.2613391155302 0.3845104660914 0.7321589583833 -0.497791952344
!< P1 F=1.4581 Eeff=(undefined: mp) Z0=(undefined: mp) R=0.0 C=0.0 
!< P2 F=1.4581 Eeff=(undefined: mp) Z0=(undefined: mp) R=0.0 C=0.0 
1.458200000000000 0.7312090104680 -0.498640424290 0.2623312048566 0.3845431695314 0.2623312048544 0.3845431695328 0.7310391080174 -0.498889479023
!< P1 F=1.4582 Eeff=(undefined: mp) Z0=(undefined: mp) R=0.0 C=0.0 
!< P2 F=1.4582 Eeff=(undefined: mp) Z0=(undefined: mp) R=0.0 C=0.0 
1.458300000000000 0.7300876860389 -0.499811986903 0.2633168246853 0.3844791259341 0.2633168246859 0.3844791259345 0.7299007223829 -0.500084979800
!< P1 F=1.4583 Eeff=(undefined: mp) Z0=(undefined: mp) R=0.0 C=0.0 
!< P2 F=1.4583 Eeff=(undefined: mp) Z0=(undefined: mp) R=0.0 C=0.0 
1.458400000000000 0.7289469232000 -0.501110734219 0.2642916296282 0.3842842043561 0.2642916296281 0.3842842043557 0.7287388416228 -0.501413288119
!< P1 F=1.4584 Eeff=(undefined: mp) Z0=(undefined: mp) R=0.0 C=0.0 
!< P2 F=1.4584 Eeff=(undefined: mp) Z0=(undefined: mp) R=0.0 C=0.0 
1.458500000000000 0.7277806512907 -0.502587904910 0.2652487714900 0.3839059919683 0.2652487714898 0.3839059919682 0.7275457472413 -0.502927891676
!< P1 F=1.4585 Eeff=(undefined: mp) Z0=(undefined: mp) R=0.0 C=0.0 
!< P2 F=1.4585 Eeff=(undefined: mp) Z0=(undefined: mp) R=0.0 C=0.0 
1.458600000000000 0.7265787627800 -0.504326451405 0.2661768947828 0.3832596933812 0.2661768947818 0.3832596933815 0.7263086527453 -0.504715374304
!< P1 F=1.4586 Eeff=(undefined: mp) Z0=(undefined: mp) R=0.0 C=0.0 
!< P2 F=1.4586 Eeff=(undefined: mp) Z0=(undefined: mp) R=0.0 C=0.0 
1.458700000000000 0.7253231535201 -0.506470022782 0.2670556834674 0.3821985098270 0.2670556834649 0.3821985098282 0.7250047852367 -0.506925657664
!< P1 F=1.4587 Eeff=(undefined: mp) Z0=(undefined: mp) R=0.0 C=0.0 
!< P2 F=1.4587 Eeff=(undefined: mp) Z0=(undefined: mp) R=0.0 C=0.0 
1.458800000000000 0.7239779472416 -0.509290857885 0.2678449376552 0.3804442710241 0.2678449376528 0.3804442710254 0.7235893447248 -0.509842825020
!< P1 F=1.4588 Eeff=(undefined: mp) Z0=(undefined: mp) R=0.0 C=0.0 
!< P2 F=1.4588 Eeff=(undefined: mp) Z0=(undefined: mp) R=0.0 C=0.0 
1.458900000000000 0.7224608658434 -0.513375106878 0.2684528457584 0.3773981538989 0.2684528457568 0.3773981538997 0.7219606017983 -0.514078391388
!< P1 F=1.4589 Eeff=(undefined: mp) Z0=(undefined: mp) R=0.0 C=0.0 
!< P2 F=1.4589 Eeff=(undefined: mp) Z0=(undefined: mp) R=0.0 C=0.0 
1.459000000000000 0.7205345847387 -0.520258246975 0.2686167849418 0.3714919803865 0.2686167849392 0.3714919803881 0.7198292600457 -0.521233697815
!< P1 F=1.459 Eeff=(undefined: mp) Z0=(undefined: mp) R=0.0 C=0.0 
!< P2 F=1.459 Eeff=(undefined: mp) Z0=(undefined: mp) R=0.0 C=0.0 
1.459100000000000 0.7171550291066 -0.535649157964 0.2671944740462 0.3568974038043 0.2671944740476 0.3568974038036 0.7159504022548 -0.537258203947
!< P1 F=1.4591 Eeff=(undefined: mp) Z0=(undefined: mp) R=0.0 C=0.0 
!< P2 F=1.4591 Eeff=(undefined: mp) Z0=(undefined: mp) R=0.0 C=0.0 
1.459110000000000 0.7165853718136 -0.538372051098 0.2668003462547 0.3542294662252 0.2668003462563 0.3542294662234 0.7152884645042 -0.540093948349
!< P1 F=1.45911 Eeff=(undefined: mp) Z0=(undefined: mp) R=0.0 C=0.0 
!< P2 F=1.45911 Eeff=(undefined: mp) Z0=(undefined: mp) R=0.0 C=0.0 
1.459120000000000 0.7159247001531 -0.541512873663 0.2663077655252 0.3511350244441 0.2663077655264 0.3511350244433 0.7145201259922 -0.543364848128
!< P1 F=1.45912 Eeff=(undefined: mp) Z0=(undefined: mp) R=0.0 C=0.0 
!< P2 F=1.45912 Eeff=(undefined: mp) Z0=(undefined: mp) R=0.0 C=0.0 
1.459130000000000 0.7151444573129 -0.545178261611 0.2656861232082 0.3475053268315 0.2656861232086 0.3475053268310 0.7136126526101 -0.547181792270
!< P1 F=1.45913 Eeff=(undefined: mp) Z0=(undefined: mp) R=0.0 C=0.0 
!< P2 F=1.45913 Eeff=(undefined: mp) Z0=(undefined: mp) R=0.0 C=0.0 
1.459140000000000 0.7142032683472 -0.549514387248 0.2648911838814 0.3431913320466 0.2648911838815 0.3431913320466 0.7125188386765 -0.551696723609
!< P1 F=1.45914 Eeff=(undefined: mp) Z0=(undefined: mp) R=0.0 C=0.0 
!< P2 F=1.45914 Eeff=(undefined: mp) Z0=(undefined: mp) R=0.0 C=0.0 
1.459150000000000 0.7130391249190 -0.554727079215 0.2638568161031 0.3379832163240 0.2638568161047 0.3379832163226 0.7111682891139 -0.557123496753
!< P1 F=1.45915 Eeff=(undefined: mp) Z0=(undefined: mp) R=0.0 C=0.0 
!< P2 F=1.45915 Eeff=(undefined: mp) Z0=(undefined: mp) R=0.0 C=0.0 
1.459160000000000 0.7115552404503 -0.561115561479 0.2624800907570 0.3315760371469 0.2624800907580 0.3315760371461 0.7094517129657 -0.563772827044
!< P1 F=1.45916 Eeff=(undefined: mp) Z0=(undefined: mp) R=0.0 C=0.0 
!< P2 F=1.45916 Eeff=(undefined: mp) Z0=(undefined: mp) R=0.0 C=0.0 
1.459170000000000 0.7095929029932 -0.569131855140 0.2605927366969 0.3235093029079 0.2605927366959 0.3235093029082 0.7071909215395 -0.572113762295
!< P1 F=1.45917 Eeff=(undefined: mp) Z0=(undefined: mp) R=0.0 C=0.0 
!< P2 F=1.45917 Eeff=(undefined: mp) Z0=(undefined: mp) R=0.0 C=0.0 
1.459180000000000 0.7068754319614 -0.579491667389 0.2579023019382 0.3130542026080 0.2579023019396 0.3130542026064 0.7040772012250 -0.582888294267
!< P1 F=1.45918 Eeff=(undefined: mp) Z0=(undefined: mp) R=0.0 C=0.0 
!< P2 F=1.45918 Eeff=(undefined: mp) Z0=(undefined: mp) R=0.0 C=0.0 
1.459190000000000 0.7028811626257 -0.593396959472 0.2538593583162 0.2989875347011 0.2538593583157 0.2989875347023 0.6995324127907 -0.597341011268
!< P1 F=1.45919 Eeff=(undefined: mp) Z0=(undefined: mp) R=0.0 C=0.0 
!< P2 F=1.45919 Eeff=(undefined: mp) Z0=(undefined: mp) R=0.0 C=0.0 
1.459200000000000 0.6965194765656 -0.613024585822 0.2473195836244 0.2790958607686 0.2473195836235 0.2790958607686 0.6923568028535 -0.617722090914
!< P1 F=1.4592 Eeff=(undefined: mp) Z0=(undefined: mp) R=0.0 C=0.0 
!< P2 F=1.4592 Eeff=(undefined: mp) Z0=(undefined: mp) R=0.0 C=0.0 
1.459210000000000 0.6851596226700 -0.642728390213 0.2355343312656 0.2489580018161 0.2355343312635 0.2489580018156 0.6796802173737 -0.648520080058
!< P1 F=1.45921 Eeff=(undefined: mp) Z0=(undefined: mp) R=0.0 C=0.0 
!< P2 F=1.45921 Eeff=(undefined: mp) Z0=(undefined: mp) R=0.0 C=0.0 
1.459220000000000 0.6609646374599 -0.692436040741 0.2103549828677 0.1985166458834 0.2103549828676 0.1985166458839 0.6530334000351 -0.699920924771
!< P1 F=1.45922 Eeff=(undefined: mp) Z0=(undefined: mp) R=0.0 C=0.0 
!< P2 F=1.45922 Eeff=(undefined: mp) Z0=(undefined: mp) R=0.0 C=0.0 
1.459230000000000 0.5911222797351 -0.788198690460 0.1378658906900 0.1015395043240 0.1378658906904 0.1015395043249 0.5773692525079 -0.798327922287
!< P1 F=1.45923 Eeff=(undefined: mp) Z0=(undefined: mp) R=0.0 C=0.0 
!< P2 F=1.45923 Eeff=(undefined: mp) Z0=(undefined: mp) R=0.0 C=0.0 
1.459231000000000 0.5774131534072 -0.802294258175 0.1236766019297 0.0873044770584 0.1236766019310 0.0873044770584 0.5626417091561 -0.812721559662
!< P1 F=1.459231 Eeff=(undefined: mp) Z0=(undefined: mp) R=0.0 C=0.0 
!< P2 F=1.459231 Eeff=(undefined: mp) Z0=(undefined: mp) R=0.0 C=0.0 
1.459232000000000 0.5613417490835 -0.817465971169 0.1070559881401 0.0719989036133 0.1070559881387 0.0719989036124 0.5454122443524 -0.828179121323
!< P1 F=1.459232 Eeff=(undefined: mp) Z0=(undefined: mp) R=0.0 C=0.0 
!< P2 F=1.459232 Eeff=(undefined: mp) Z0=(undefined: mp) R=0.0 C=0.0 
1.459233000000000 0.5423604224697 -0.833730168564 0.0874434251657 0.0556131779238 0.0874434251678 0.0556131779257 0.5251070386027 -0.844703154873
!< P1 F=1.459233 Eeff=(undefined: mp) Z0=(undefined: mp) R=0.0 C=0.0 
!< P2 F=1.459233 Eeff=(undefined: mp) Z0=(undefined: mp) R=0.0 C=0.0 
1.459234000000000 0.5197694431776 -0.851039541122 0.0641234677638 0.0382047937266 0.0641234677637 0.0382047937272 0.5009947286023 -0.862225525330
!< P1 F=1.459234 Eeff=(undefined: mp) Z0=(undefined: mp) R=0.0 C=0.0 
!< P2 F=1.459234 Eeff=(undefined: mp) Z0=(undefined: mp) R=0.0 C=0.0 
1.459235000000000 0.4926735927602 -0.869232743113 0.0361821372304 0.0199504947776 0.0361821372260 0.0199504947749 0.4721423089070 -0.880553502540
!< P1 F=1.459235 Eeff=(undefined: mp) Z0=(undefined: mp) R=0.0 C=0.0 
!< P2 F=1.459235 Eeff=(undefined: mp) Z0=(undefined: mp) R=0.0 C=0.0 
1.459236000000000 0.4599311366357 -0.887950335744 0.0024557470043 0.0012329296055 0.0024557470033 0.0012329296050 0.4373639354422 -0.899280399635
!< P1 F=1.459236 Eeff=(undefined: mp) Z0=(undefined: mp) R=0.0 C=0.0 
!< P2 F=1.459236 Eeff=(undefined: mp) Z0=(undefined: mp) R=0.0 C=0.0 
1.459237000000000 0.4201028443788 -0.906495157040 -0.038519435313 -0.017215792490 -0.038519435314 -0.017215792490 0.3951712645734 -0.917638022999
!< P1 F=1.459237 Eeff=(undefined: mp) Z0=(undefined: mp) R=0.0 C=0.0 
!< P2 F=1.459237 Eeff=(undefined: mp) Z0=(undefined: mp) R=0.0 C=0.0 
1.459238000000000 0.3714232673044 -0.923604394084 -0.088533611771 -0.034080482965 -0.088533611770 -0.034080482965 0.3437494390892 -0.934257268311
!< P1 F=1.459238 Eeff=(undefined: mp) Z0=(undefined: mp) R=0.0 C=0.0 
!< P2 F=1.459238 Eeff=(undefined: mp) Z0=(undefined: mp) R=0.0 C=0.0 
1.459239000000000 0.3118499759990 -0.937089640381 -0.149648395646 -0.047095180650 -0.149648395644 -0.047095180649 0.2810182104531 -0.946792568112
!< P1 F=1.459239 Eeff=(undefined: mp) Z0=(undefined: mp) R=0.0 C=0.0 
!< P2 F=1.459239 Eeff=(undefined: mp) Z0=(undefined: mp) R=0.0 C=0.0 
1.459240000000000 0.2393153261520 -0.943305853593 -0.223932300379 -0.052503010363 -0.223932300379 -0.052503010364 0.2049096536667 -0.951372583472
!< P1 F=1.45924 Eeff=(undefined: mp) Z0=(undefined: mp) R=0.0 C=0.0 
!< P2 F=1.45924 Eeff=(undefined: mp) Z0=(undefined: mp) R=0.0 C=0.0 
1.459241000000000 0.1524266223888 -0.936479197229 -0.312735481951 -0.044377429784 -0.312735481951 -0.044377429784 0.1141191144786 -0.941915065053
!< P1 F=1.459241 Eeff=(undefined: mp) Z0=(undefined: mp) R=0.0 C=0.0 
!< P2 F=1.459241 Eeff=(undefined: mp) Z0=(undefined: mp) R=0.0 C=0.0 
1.459242000000000 0.0520027874039 -0.908174201318 -0.415110354382 -0.014096944618 -0.415110354382 -0.014096944616 0.0097282690475 -0.909609823281
!< P1 F=1.459242 Eeff=(undefined: mp) Z0=(undefined: mp) R=0.0 C=0.0 
!< P2 F=1.459242 Eeff=(undefined: mp) Z0=(undefined: mp) R=0.0 C=0.0 
1.459243000000000 -0.056231294780 -0.847783331246 -0.525060754416 0.0491189263097 -0.525060754408 0.0491189263079 -0.101986901780 -0.843502938419
!< P1 F=1.459243 Eeff=(undefined: mp) Z0=(undefined: mp) R=0.0 C=0.0 
!< P2 F=1.459243 Eeff=(undefined: mp) Z0=(undefined: mp) R=0.0 C=0.0 
1.459244000000000 -0.158436244606 -0.745757288374 -0.628300630437 0.1548623292625 -0.628300630429 0.1548623292593 -0.206282657063 -0.733964196788
!< P1 F=1.459244 Eeff=(undefined: mp) Z0=(undefined: mp) R=0.0 C=0.0 
!< P2 F=1.459244 Eeff=(undefined: mp) Z0=(undefined: mp) R=0.0 C=0.0 
1.459245000000000 -0.232160439672 -0.600877165113 -0.701839062651 0.3040889554586 -0.701839062653 0.3040889554588 -0.279619674625 -0.580314289732
!< P1 F=1.459245 Eeff=(undefined: mp) Z0=(undefined: mp) R=0.0 C=0.0 
!< P2 F=1.459245 Eeff=(undefined: mp) Z0=(undefined: mp) R=0.0 C=0.0 
1.459246000000000 -0.253757191861 -0.428220318621 -0.721673937764 0.4810627545790 -0.721673937769 0.4810627545757 -0.297640648513 -0.398967916074
!< P1 F=1.459246 Eeff=(undefined: mp) Z0=(undefined: mp) R=0.0 C=0.0 
!< P2 F=1.459246 Eeff=(undefined: mp) Z0=(undefined: mp) R=0.0 C=0.0 
1.459247000000000 -0.212980803499 -0.257870121673 -0.677711464482 0.6548659012331 -0.677711464480 0.6548659012357 -0.250418089086 -0.221694841993
!< P1 F=1.459247 Eeff=(undefined: mp) Z0=(undefined: mp) R=0.0 C=0.0 
!< P2 F=1.459247 Eeff=(undefined: mp) Z0=(undefined: mp) R=0.0 C=0.0 
1.459248000000000 -0.121425020335 -0.119834143982 -0.582205489899 0.7949418279964 -0.582205489899 0.7949418280019 -0.150888453224 -0.079604851048
!< P1 F=1.459248 Eeff=(undefined: mp) Z0=(undefined: mp) R=0.0 C=0.0 
!< P2 F=1.459248 Eeff=(undefined: mp) Z0=(undefined: mp) R=0.0 C=0.0 
1.459249000000000 -4.292609106e-3 -0.028532680360 -0.461133666339 0.8868614330477 -0.461133666340 0.8868614330473 -0.025822481121 0.0128739974456
!< P1 F=1.459249 Eeff=(undefined: mp) Z0=(undefined: mp) R=0.0 C=0.0 
!< P2 F=1.459249 Eeff=(undefined: mp) Z0=(undefined: mp) R=0.0 C=0.0 
1.459250000000000 0.1148696905475 0.0187599288340 -0.338556297170 0.9337197935742 -0.338556297170 0.9337197935701 0.1001987862515 0.0592214823361
!< P1 F=1.45925 Eeff=(undefined: mp) Z0=(undefined: mp) R=0.0 C=0.0 
!< P2 F=1.45925 Eeff=(undefined: mp) Z0=(undefined: mp) R=0.0 C=0.0 
1.459251000000000 0.2221202586160 0.0333395050735 -0.228593315741 0.9472571794980 -0.228593315739 0.9472571794986 0.2128787383262 0.0716350099828
!< P1 F=1.459251 Eeff=(undefined: mp) Z0=(undefined: mp) R=0.0 C=0.0 
!< P2 F=1.459251 Eeff=(undefined: mp) Z0=(undefined: mp) R=0.0 C=0.0 
1.459252000000000 0.3123948221411 0.0271247217546 -0.136272240775 0.9397359208632 -0.136272240777 0.9397359208644 0.3072319329318 0.0627281023006
!< P1 F=1.459252 Eeff=(undefined: mp) Z0=(undefined: mp) R=0.0 C=0.0 
!< P2 F=1.459252 Eeff=(undefined: mp) Z0=(undefined: mp) R=0.0 C=0.0 
1.459253000000000 0.3857943455483 0.0092429760730 -0.061371178660 0.9204949042565 -0.061371178661 0.9204949042606 0.3836067386867 0.0420544848725
!< P1 F=1.459253 Eeff=(undefined: mp) Z0=(undefined: mp) R=0.0 C=0.0 
!< P2 F=1.459253 Eeff=(undefined: mp) Z0=(undefined: mp) R=0.0 C=0.0 
1.459254000000000 0.4445546589155 -0.014314453072 -1.524345528e-3 0.8956360466378 -1.524345529e-3 0.8956360466403 0.4445033580466 0.0158276029909
!< P1 F=1.459254 Eeff=(undefined: mp) Z0=(undefined: mp) R=0.0 C=0.0 
!< P2 F=1.459254 Eeff=(undefined: mp) Z0=(undefined: mp) R=0.0 C=0.0 
1.459255000000000 0.4913898657830 -0.039954442855 0.0460923013553 0.8688009795447 0.0460923013520 0.8688009795438 0.4928589901480 -0.012262688501
!< P1 F=1.459255 Eeff=(undefined: mp) Z0=(undefined: mp) R=0.0 C=0.0 
!< P2 F=1.459255 Eeff=(undefined: mp) Z0=(undefined: mp) R=0.0 C=0.0 
1.459256000000000 0.5287930078691 -0.065659150044 0.0840561399678 0.8420222064633 0.0840561399684 0.8420222064633 0.5313375026926 -0.040169981178
!< P1 F=1.459256 Eeff=(undefined: mp) Z0=(undefined: mp) R=0.0 C=0.0 
!< P2 F=1.459256 Eeff=(undefined: mp) Z0=(undefined: mp) R=0.0 C=0.0 
1.459257000000000 0.5588260321777 -0.090369264021 0.1144909648970 0.8163569567535 0.1144909648981 0.8163569567514 0.5621259230816 -0.066839993402
!< P1 F=1.459257 Eeff=(undefined: mp) Z0=(undefined: mp) R=0.0 C=0.0 
!< P2 F=1.459257 Eeff=(undefined: mp) Z0=(undefined: mp) R=0.0 C=0.0 
1.459258000000000 0.5831155509314 -0.113583104668 0.1390678075127 0.7922974678162 0.1390678075132 0.7922974678191 0.5869406557909 -0.091790707499
!< P1 F=1.459258 Eeff=(undefined: mp) Z0=(undefined: mp) R=0.0 C=0.0 
!< P2 F=1.459258 Eeff=(undefined: mp) Z0=(undefined: mp) R=0.0 C=0.0 
1.459259000000000 0.6029174986262 -0.135112751999 0.1590743387704 0.7700197327623 0.1590743387707 0.7700197327614 0.6071016642583 -0.114858761776
!< P1 F=1.459259 Eeff=(undefined: mp) Z0=(undefined: mp) R=0.0 C=0.0 
!< P2 F=1.459259 Eeff=(undefined: mp) Z0=(undefined: mp) R=0.0 C=0.0 
1.459260000000000 0.6191938537546 -0.154940849646 0.1754951864264 0.7495290148651 0.1754951864274 0.7495290148649 0.6236166040569 -0.136051558466
!< P1 F=1.45926 Eeff=(undefined: mp) Z0=(undefined: mp) R=0.0 C=0.0 
!< P2 F=1.45926 Eeff=(undefined: mp) Z0=(undefined: mp) R=0.0 C=0.0 
1.459270000000000 0.6908004788680 -0.282969127746 0.2473341389516 0.6176965232614 0.2473341389538 0.6176965232604 0.6951921532854 -0.272001284684
!< P1 F=1.45927 Eeff=(undefined: mp) Z0=(undefined: mp) R=0.0 C=0.0 
!< P2 F=1.45927 Eeff=(undefined: mp) Z0=(undefined: mp) R=0.0 C=0.0 
1.459280000000000 0.7092323129800 -0.344125236604 0.2656273687413 0.5549859896723 0.2656273687421 0.5549859896725 0.7128713876567 -0.336521970906
!< P1 F=1.45928 Eeff=(undefined: mp) Z0=(undefined: mp) R=0.0 C=0.0 
!< P2 F=1.45928 Eeff=(undefined: mp) Z0=(undefined: mp) R=0.0 C=0.0 
1.459290000000000 0.7159099071323 -0.378919245175 0.2722348749712 0.5194048357085 0.2722348749730 0.5194048357077 0.7189447553476 -0.373128969996
!< P1 F=1.45929 Eeff=(undefined: mp) Z0=(undefined: mp) R=0.0 C=0.0 
!< P2 F=1.45929 Eeff=(undefined: mp) Z0=(undefined: mp) R=0.0 C=0.0 
1.459300000000000 0.7187913910967 -0.401212463207 0.2751202670541 0.4966652133062 0.2751202670549 0.4966652133061 0.7213759289511 -0.396546685368
!< P1 F=1.4593 Eeff=(undefined: mp) Z0=(undefined: mp) R=0.0 C=0.0 
!< P2 F=1.4593 Eeff=(undefined: mp) Z0=(undefined: mp) R=0.0 C=0.0 
1.459400000000000 0.7205575297477 -0.466213445193 0.2783526207683 0.4312327542719 0.2783526207677 0.4312327542727 0.7215664372085 -0.464650413592
!< P1 F=1.4594 Eeff=(undefined: mp) Z0=(undefined: mp) R=0.0 C=0.0 
!< P2 F=1.4594 Eeff=(undefined: mp) Z0=(undefined: mp) R=0.0 C=0.0 
1.459500000000000 0.7189429227201 -0.480576580369 0.2787945598997 0.4176611277598 0.2787945598981 0.4176611277606 0.7195637818324 -0.479646473569
!< P1 F=1.4595 Eeff=(undefined: mp) Z0=(undefined: mp) R=0.0 C=0.0 
!< P2 F=1.4595 Eeff=(undefined: mp) Z0=(undefined: mp) R=0.0 C=0.0 
1.459600000000000 0.7174753174931 -0.487172485659 0.2794992485602 0.4120343530102 0.2794992485606 0.4120343530097 0.7179217814335 -0.486514314010
!< P1 F=1.4596 Eeff=(undefined: mp) Z0=(undefined: mp) R=0.0 C=0.0 
!< P2 F=1.4596 Eeff=(undefined: mp) Z0=(undefined: mp) R=0.0 C=0.0 
1.459700000000000 0.7161160025146 -0.491134857245 0.2803604922860 0.4090995200541 0.2803604922870 0.4090995200531 0.7164634248352 -0.490627901703
!< P1 F=1.4597 Eeff=(undefined: mp) Z0=(undefined: mp) R=0.0 C=0.0 
!< P2 F=1.4597 Eeff=(undefined: mp) Z0=(undefined: mp) R=0.0 C=0.0 
1.459800000000000 0.7148174169734 -0.493890098629 0.2813110627765 0.4073974923876 0.2813110627762 0.4073974923873 0.7151009916052 -0.493479423014
!< P1 F=1.4598 Eeff=(undefined: mp) Z0=(undefined: mp) R=0.0 C=0.0 
!< P2 F=1.4598 Eeff=(undefined: mp) Z0=(undefined: mp) R=0.0 C=0.0 
1.459900000000000 0.7135536900537 -0.495991875960 0.2823174006211 0.4063620007807 0.2823174006238 0.4063620007783 0.7137926774248 -0.495647882327
!< P1 F=1.4599 Eeff=(undefined: mp) Z0=(undefined: mp) R=0.0 C=0.0 
!< P2 F=1.4599 Eeff=(undefined: mp) Z0=(undefined: mp) R=0.0 C=0.0 
1.460000000000000 0.7123105228786 -0.497699991973 0.2833615674191 0.4057273211164 0.2833615674190 0.4057273211166 0.7125166053963 -0.497404915586
!< P1 F=1.46 Eeff=(undefined: mp) Z0=(undefined: mp) R=0.0 C=0.0 
!< P2 F=1.46 Eeff=(undefined: mp) Z0=(undefined: mp) R=0.0 C=0.0 
1.461000000000000 0.7000579969247 -0.507909800910 0.2947311262471 0.4063003794021 0.2947311262463 0.4063003794028 0.7001400313451 -0.507796712700
!< P1 F=1.461 Eeff=(undefined: mp) Z0=(undefined: mp) R=0.0 C=0.0 
!< P2 F=1.461 Eeff=(undefined: mp) Z0=(undefined: mp) R=0.0 C=0.0 
1.462000000000000 0.6874291878239 -0.515063609061 0.3069911041398 0.4097646304001 0.3069911041409 0.4097646303997 0.6874765075860 -0.515000447734
!< P1 F=1.462 Eeff=(undefined: mp) Z0=(undefined: mp) R=0.0 C=0.0 
!< P2 F=1.462 Eeff=(undefined: mp) Z0=(undefined: mp) R=0.0 C=0.0 
1.463000000000000 0.6742067104780 -0.521481017382 0.3199528473655 0.4136822881396 0.3199528473657 0.4136822881395 0.6742373689190 -0.521441377622
!< P1 F=1.463 Eeff=(undefined: mp) Z0=(undefined: mp) R=0.0 C=0.0 
!< P2 F=1.463 Eeff=(undefined: mp) Z0=(undefined: mp) R=0.0 C=0.0 
1.464000000000000 0.6603267122730 -0.527497460464 0.3336111460458 0.4176346076358 0.3336111460449 0.4176346076361 0.6603473646800 -0.527471606533
!< P1 F=1.464 Eeff=(undefined: mp) Z0=(undefined: mp) R=0.0 C=0.0 
!< P2 F=1.464 Eeff=(undefined: mp) Z0=(undefined: mp) R=0.0 C=0.0 
1.465000000000000 0.6457457325455 -0.533184463858 0.3479878831615 0.4214631770045 0.3479878831617 0.4214631770047 0.6457595425673 -0.533167737944
!< P1 F=1.465 Eeff=(undefined: mp) Z0=(undefined: mp) R=0.0 C=0.0 
!< P2 F=1.465 Eeff=(undefined: mp) Z0=(undefined: mp) R=0.0 C=0.0 
1.466000000000000 0.6304272259294 -0.538540259278 0.3631106707397 0.4250723970557 0.3631106707395 0.4250723970563 0.6304359304352 -0.538530069424
!< P1 F=1.466 Eeff=(undefined: mp) Z0=(undefined: mp) R=0.0 C=0.0 
!< P2 F=1.466 Eeff=(undefined: mp) Z0=(undefined: mp) R=0.0 C=0.0 
1.467000000000000 0.6143365285710 -0.543533225055 0.3790097945287 0.4283851521401 0.3790097945296 0.4283851521398 0.6143411667489 -0.543527982639
!< P1 F=1.467 Eeff=(undefined: mp) Z0=(undefined: mp) R=0.0 C=0.0 
!< P2 F=1.467 Eeff=(undefined: mp) Z0=(undefined: mp) R=0.0 C=0.0 
1.468000000000000 0.5974411120027 -0.548114650180 0.3957153642227 0.4313279477007 0.3957153642228 0.4313279477007 0.5974423591493 -0.548113290796
!< P1 F=1.468 Eeff=(undefined: mp) Z0=(undefined: mp) R=0.0 C=0.0 
!< P2 F=1.468 Eeff=(undefined: mp) Z0=(undefined: mp) R=0.0 C=0.0 
1.469000000000000 0.5797106123794 -0.552223415490 0.4132563059872 0.4338250002486 0.4132563059883 0.4338250002476 0.5797089020676 -0.552225210925
!< P1 F=1.469 Eeff=(undefined: mp) Z0=(undefined: mp) R=0.0 C=0.0 
!< P2 F=1.469 Eeff=(undefined: mp) Z0=(undefined: mp) R=0.0 C=0.0 
1.470000000000000 0.5611177535544 -0.555787686208 0.4316589636086 0.4357951968993 0.4316589636082 0.4357951968996 0.5611133851516 -0.555792096470
!< P1 F=1.47 Eeff=(undefined: mp) Z0=(undefined: mp) R=0.0 C=0.0 
!< P2 F=1.47 Eeff=(undefined: mp) Z0=(undefined: mp) R=0.0 C=0.0 
1.480000000000000 0.3265163302207 -0.538490329984 0.6642391996799 0.4027425185175 0.6642391996794 0.4027425185181 0.3264899238617 -0.538506340728
!< P1 F=1.48 Eeff=(undefined: mp) Z0=(undefined: mp) R=0.0 C=0.0 
!< P2 F=1.48 Eeff=(undefined: mp) Z0=(undefined: mp) R=0.0 C=0.0 
1.490000000000000 0.0636083307559 -0.330100624302 0.9248006610251 0.1781328029019 0.9248006610263 0.1781328029036 0.0635597923494 -0.330109973651
!< P1 F=1.49 Eeff=(undefined: mp) Z0=(undefined: mp) R=0.0 C=0.0 
!< P2 F=1.49 Eeff=(undefined: mp) Z0=(undefined: mp) R=0.0 C=0.0 
1.500000000000000 0.0163413227472 0.0669718124292 0.9692914920929 -0.236054529386 0.9692914920924 -0.236054529385 0.0162819030592 0.0669862830873
!< P1 F=1.5 Eeff=(undefined: mp) Z0=(undefined: mp) R=0.0 C=0.0 
!< P2 F=1.5 Eeff=(undefined: mp) Z0=(undefined: mp) R=0.0 C=0.0 
1.600000000000000 0.8640874441251 -0.130486114384 -0.072552881335 -0.480689444723 -0.072552881335 -0.480689444724 0.8641066404547 -0.130358931660
!< P1 F=1.6 Eeff=(undefined: mp) Z0=(undefined: mp) R=0.0 C=0.0 
!< P2 F=1.6 Eeff=(undefined: mp) Z0=(undefined: mp) R=0.0 C=0.0 
1.700000000000000 0.9319611561687 0.2921351805536 -0.063699538221 0.2050556229563 -0.063699538221 0.2050556229564 0.9334490519657 0.2873454849281
!< P1 F=1.7 Eeff=(undefined: mp) Z0=(undefined: mp) R=0.0 C=0.0 
!< P2 F=1.7 Eeff=(undefined: mp) Z0=(undefined: mp) R=0.0 C=0.0 
1.800000000000000 0.9944643903587 0.0572022635722 -5.062002076e-3 0.0879934854727 -5.062002076e-3 0.0879934854727 0.9944636680387 0.0572148197613
!< P1 F=1.8 Eeff=(undefined: mp) Z0=(undefined: mp) R=0.0 C=0.0 
!< P2 F=1.8 Eeff=(undefined: mp) Z0=(undefined: mp) R=0.0 C=0.0 
1.900000000000000 0.9859221688713 -0.113093427603 0.0140353934080 0.1223534277237 0.0140353934256 0.1223534277217 0.9859213601193 -0.113100478044
!< P1 F=1.9 Eeff=(undefined: mp) Z0=(undefined: mp) R=0.0 C=0.0 
!< P2 F=1.9 Eeff=(undefined: mp) Z0=(undefined: mp) R=0.0 C=0.0 
2.000000000000000 0.0149025148361 0.0702102719199 0.9771564608456 -0.200034206580 0.9771564608458 -0.200034206580 0.0138856603221 0.0704184327324
!< P1 F=2.0 Eeff=(undefined: mp) Z0=(undefined: mp) R=0.0 C=0.0 
!< P2 F=2.0 Eeff=(undefined: mp) Z0=(undefined: mp) R=0.0 C=0.0 
