! Sonnet Data File
! From: emclient Version : 13.56
! From Project: Coupling5_with_inductance_perturbation_2pH
! Data is De-embedded 
! Data File Written: 06/30/2014 10:07:00
!< HDATE 05/21/2014 16:49:56
!< MDATE 05/21/2014 17:06:35
# GHZ S RI R 0.020000
0.600000000000000 -1.788359172e-3 -7.453280419e-3 -0.984790258426 -0.173578216608 -0.984790258426 -0.173578216605 0.0042288379261 -6.392694850e-3
!< P1 F=0.6 Eeff=(undefined: mp) Z0=(undefined: mp) R=0.0 C=0.0 
!< P2 F=0.6 Eeff=(undefined: mp) Z0=(undefined: mp) R=0.0 C=0.0 
0.610000000000000 -6.500957295e-3 -0.040589044876 -0.995443070851 0.0860427784425 -0.995443070851 0.0860427784442 -5.601912540e-4 -0.041102544876
!< P1 F=0.61 Eeff=(undefined: mp) Z0=(undefined: mp) R=0.0 C=0.0 
!< P2 F=0.61 Eeff=(undefined: mp) Z0=(undefined: mp) R=0.0 C=0.0 
0.620000000000000 -0.027961300285 -0.068919796153 -0.937974724557 0.3386320178009 -0.937974724557 0.3386320177992 -0.022512396988 -0.070886984680
!< P1 F=0.62 Eeff=(undefined: mp) Z0=(undefined: mp) R=0.0 C=0.0 
!< P2 F=0.62 Eeff=(undefined: mp) Z0=(undefined: mp) R=0.0 C=0.0 
0.630000000000000 -0.061996414386 -0.084595441087 -0.817550442651 0.5662255113223 -0.817550442652 0.5662255113215 -0.057391846328 -0.087784509022
!< P1 F=0.63 Eeff=(undefined: mp) Z0=(undefined: mp) R=0.0 C=0.0 
!< P2 F=0.63 Eeff=(undefined: mp) Z0=(undefined: mp) R=0.0 C=0.0 
0.640000000000000 -0.101074429031 -0.082815764257 -0.644031302592 0.7537567182230 -0.644031302595 0.7537567182209 -0.097572733202 -0.086914053809
!< P1 F=0.64 Eeff=(undefined: mp) Z0=(undefined: mp) R=0.0 C=0.0 
!< P2 F=0.64 Eeff=(undefined: mp) Z0=(undefined: mp) R=0.0 C=0.0 
0.650000000000000 -0.136206602678 -0.062998463688 -0.430419200728 0.8900664394327 -0.430419200727 0.8900664394333 -0.133958142299 -0.067648068351
!< P1 F=0.65 Eeff=(undefined: mp) Z0=(undefined: mp) R=0.0 C=0.0 
!< P2 F=0.65 Eeff=(undefined: mp) Z0=(undefined: mp) R=0.0 C=0.0 
0.660000000000000 -0.159710849623 -0.029007835173 -0.191048318975 0.9680658706043 -0.191048318974 0.9680658706048 -0.158756837666 -0.033841933784
!< P1 F=0.66 Eeff=(undefined: mp) Z0=(undefined: mp) R=0.0 C=0.0 
!< P2 F=0.66 Eeff=(undefined: mp) Z0=(undefined: mp) R=0.0 C=0.0 
0.670000000000000 -0.166349188709 0.0123608467337 0.0592669106349 0.9842065790211 0.0592669106305 0.9842065790212 -0.166630427100 0.0076905058481
!< P1 F=0.67 Eeff=(undefined: mp) Z0=(undefined: mp) R=0.0 C=0.0 
!< P2 F=0.67 Eeff=(undefined: mp) Z0=(undefined: mp) R=0.0 C=0.0 
0.680000000000000 -0.154540897517 0.0526900035431 0.3057060799155 0.9380216773746 0.3057060799142 0.9380216773749 -0.155910454462 0.0484876857432
!< P1 F=0.68 Eeff=(undefined: mp) Z0=(undefined: mp) R=0.0 C=0.0 
!< P2 F=0.68 Eeff=(undefined: mp) Z0=(undefined: mp) R=0.0 C=0.0 
0.690000000000000 -0.126802373885 0.0838273409195 0.5337618903740 0.8318607932080 0.5337618903718 0.8318607932093 -0.129043000006 0.0803353549649
!< P1 F=0.69 Eeff=(undefined: mp) Z0=(undefined: mp) R=0.0 C=0.0 
!< P2 F=0.69 Eeff=(undefined: mp) Z0=(undefined: mp) R=0.0 C=0.0 
0.700000000000000 -0.089108582787 0.0996768402915 0.7292107554142 0.6711004858971 0.7292107554143 0.6711004858970 -0.091951163541 0.0970607827089
!< P1 F=0.7 Eeff=(undefined: mp) Z0=(undefined: mp) R=0.0 C=0.0 
!< P2 F=0.7 Eeff=(undefined: mp) Z0=(undefined: mp) R=0.0 C=0.0 
0.710000000000000 -0.049647430604 0.0977169553160 0.8787291340300 0.4645660752676 0.8787291340265 0.4645660752743 -0.052794780152 0.0960530161391
!< P1 F=0.71 Eeff=(undefined: mp) Z0=(undefined: mp) R=0.0 C=0.0 
!< P2 F=0.71 Eeff=(undefined: mp) Z0=(undefined: mp) R=0.0 C=0.0 
0.711000000000000 -0.046375865186 0.0972502972321 0.8902407165811 0.4425642612783 0.8902407165805 0.4425642612794 -0.049535188080 0.0956797069636
!< P1 F=0.711 Eeff=(undefined: mp) Z0=(undefined: mp) R=0.0 C=0.0 
!< P2 F=0.711 Eeff=(undefined: mp) Z0=(undefined: mp) R=0.0 C=0.0 
0.712000000000000 -0.042721304054 0.0959555114603 0.9016364733052 0.4195463025772 0.9016364733051 0.4195463025772 -0.045891620868 0.0944803108251
!< P1 F=0.712 Eeff=(undefined: mp) Z0=(undefined: mp) R=0.0 C=0.0 
!< P2 F=0.712 Eeff=(undefined: mp) Z0=(undefined: mp) R=0.0 C=0.0 
0.713000000000000 -0.039149714749 0.0945051758959 0.9124382354062 0.3962228389819 0.9124382354057 0.3962228389829 -0.042327986790 0.0931250233338
!< P1 F=0.713 Eeff=(undefined: mp) Z0=(undefined: mp) R=0.0 C=0.0 
!< P2 F=0.713 Eeff=(undefined: mp) Z0=(undefined: mp) R=0.0 C=0.0 
0.714000000000000 -0.035667158934 0.0929004845110 0.9226360968652 0.3726123810525 0.9226360968641 0.3726123810553 -0.038850522766 0.0916148630363
!< P1 F=0.714 Eeff=(undefined: mp) Z0=(undefined: mp) R=0.0 C=0.0 
!< P2 F=0.714 Eeff=(undefined: mp) Z0=(undefined: mp) R=0.0 C=0.0 
0.715000000000000 -0.032281356804 0.0911507801266 0.9322252426913 0.3487198677632 0.9322252426918 0.3487198677621 -0.035466897922 0.0899591566568
!< P1 F=0.715 Eeff=(undefined: mp) Z0=(undefined: mp) R=0.0 C=0.0 
!< P2 F=0.715 Eeff=(undefined: mp) Z0=(undefined: mp) R=0.0 C=0.0 
0.716000000000000 -0.028997980430 0.0892584053771 0.9411971341463 0.3245612559618 0.9411971341462 0.3245612559622 -0.032182815144 0.0881601509116
!< P1 F=0.716 Eeff=(undefined: mp) Z0=(undefined: mp) R=0.0 C=0.0 
!< P2 F=0.716 Eeff=(undefined: mp) Z0=(undefined: mp) R=0.0 C=0.0 
0.717000000000000 -0.025823533535 0.0872222045932 0.9495376084899 0.3001728871879 0.9495376084903 0.3001728871867 -0.029004838027 0.0862165136705
!< P1 F=0.717 Eeff=(undefined: mp) Z0=(undefined: mp) R=0.0 C=0.0 
!< P2 F=0.717 Eeff=(undefined: mp) Z0=(undefined: mp) R=0.0 C=0.0 
0.718000000000000 -0.022766452368 0.0850599195380 0.9572444242720 0.2755532814827 0.9572444242718 0.2755532814837 -0.025941322529 0.0841459984240
!< P1 F=0.718 Eeff=(undefined: mp) Z0=(undefined: mp) R=0.0 C=0.0 
!< P2 F=0.718 Eeff=(undefined: mp) Z0=(undefined: mp) R=0.0 C=0.0 
0.719000000000000 -0.019831114872 0.0827706156386 0.9643089824191 0.2507268204677 0.9643089824189 0.2507268204687 -0.022996713037 0.0819475388302
!< P1 F=0.719 Eeff=(undefined: mp) Z0=(undefined: mp) R=0.0 C=0.0 
!< P2 F=0.719 Eeff=(undefined: mp) Z0=(undefined: mp) R=0.0 C=0.0 
0.720000000000000 -0.016749261953 0.0795077670628 0.9710001212739 0.2248482637064 0.9710001212752 0.2248482637013 -0.019903793029 0.0787772925657
!< P1 F=0.72 Eeff=(undefined: mp) Z0=(undefined: mp) R=0.0 C=0.0 
!< P2 F=0.72 Eeff=(undefined: mp) Z0=(undefined: mp) R=0.0 C=0.0 
0.721000000000000 -0.014343060467 0.0778235766211 0.9764938811927 0.2004930610661 0.9764938811929 0.2004930610652 -0.017481982934 0.0771790951886
!< P1 F=0.721 Eeff=(undefined: mp) Z0=(undefined: mp) R=0.0 C=0.0 
!< P2 F=0.721 Eeff=(undefined: mp) Z0=(undefined: mp) R=0.0 C=0.0 
0.721100000000000 -0.014082223255 0.0775623042638 0.9770347668787 0.1979617242272 0.9770347668783 0.1979617242289 -0.017219526533 0.0769266401232
!< P1 F=0.7211 Eeff=(undefined: mp) Z0=(undefined: mp) R=0.0 C=0.0 
!< P2 F=0.7211 Eeff=(undefined: mp) Z0=(undefined: mp) R=0.0 C=0.0 
0.721200000000000 -0.013822434731 0.0772988789437 0.9775693587873 0.1954276653246 0.9775693587863 0.1954276653296 -0.016958165100 0.0766720093963
!< P1 F=0.7212 Eeff=(undefined: mp) Z0=(undefined: mp) R=0.0 C=0.0 
!< P2 F=0.7212 Eeff=(undefined: mp) Z0=(undefined: mp) R=0.0 C=0.0 
0.721300000000000 -0.013562153596 0.0770259076121 0.9780986390466 0.1928889054299 0.9780986390467 0.1928889054292 -0.016696214561 0.0764078456215
!< P1 F=0.7213 Eeff=(undefined: mp) Z0=(undefined: mp) R=0.0 C=0.0 
!< P2 F=0.7213 Eeff=(undefined: mp) Z0=(undefined: mp) R=0.0 C=0.0 
0.721400000000000 -0.013304252777 0.0767568379811 0.9786208928504 0.1903484509589 0.9786208928505 0.1903484509588 -0.016436696778 0.0761475562219
!< P1 F=0.7214 Eeff=(undefined: mp) Z0=(undefined: mp) R=0.0 C=0.0 
!< P2 F=0.7214 Eeff=(undefined: mp) Z0=(undefined: mp) R=0.0 C=0.0 
0.721500000000000 -0.013046619848 0.0764824123755 0.9791377995079 0.1878014799914 0.9791377995079 0.1878014799913 -0.016177305991 0.0758819376641
!< P1 F=0.7215 Eeff=(undefined: mp) Z0=(undefined: mp) R=0.0 C=0.0 
!< P2 F=0.7215 Eeff=(undefined: mp) Z0=(undefined: mp) R=0.0 C=0.0 
0.721600000000000 -0.012787912868 0.0761973204896 0.9796504735445 0.1852441290117 0.9796504735442 0.1852441290129 -0.015916827330 0.0756056676019
!< P1 F=0.7216 Eeff=(undefined: mp) Z0=(undefined: mp) R=0.0 C=0.0 
!< P2 F=0.7216 Eeff=(undefined: mp) Z0=(undefined: mp) R=0.0 C=0.0 
0.721700000000000 -0.012526861552 0.0758968298470 0.9801602776850 0.1826706846678 0.9801602776842 0.1826706846722 -0.015654029955 0.0753140251693
!< P1 F=0.7217 Eeff=(undefined: mp) Z0=(undefined: mp) R=0.0 C=0.0 
!< P2 F=0.7217 Eeff=(undefined: mp) Z0=(undefined: mp) R=0.0 C=0.0 
0.721800000000000 -0.012254328404 0.0755437558683 0.9806757947287 0.1800498764658 0.9806757947282 0.1800498764685 -0.015379651091 0.0749699536321
!< P1 F=0.7218 Eeff=(undefined: mp) Z0=(undefined: mp) R=0.0 C=0.0 
!< P2 F=0.7218 Eeff=(undefined: mp) Z0=(undefined: mp) R=0.0 C=0.0 
0.721900000000000 -0.011916207939 0.0749311718248 0.9812523979549 0.1771639212559 0.9812523979547 0.1771639212570 -0.015039444248 0.0743672753258
!< P1 F=0.7219 Eeff=(undefined: mp) Z0=(undefined: mp) R=0.0 C=0.0 
!< P2 F=0.7219 Eeff=(undefined: mp) Z0=(undefined: mp) R=0.0 C=0.0 
0.721910000000000 -0.011884390328 0.0748763390012 0.9813078206559 0.1768820405367 0.9813078206549 0.1768820405423 -0.015007265283 0.0743134366416
!< P1 F=0.72191 Eeff=(undefined: mp) Z0=(undefined: mp) R=0.0 C=0.0 
!< P2 F=0.72191 Eeff=(undefined: mp) Z0=(undefined: mp) R=0.0 C=0.0 
0.721920000000000 -0.011819587171 0.0746941705902 0.9813961719327 0.1764727513593 0.9813961719328 0.1764727513590 -0.014942166726 0.0741326744058
!< P1 F=0.72192 Eeff=(undefined: mp) Z0=(undefined: mp) R=0.0 C=0.0 
!< P2 F=0.72192 Eeff=(undefined: mp) Z0=(undefined: mp) R=0.0 C=0.0 
0.721930000000000 -0.011730729245 0.0744179850896 0.9815085660374 0.1759695663002 0.9815085660376 0.1759695662990 -0.014852940426 0.0738582200891
!< P1 F=0.72193 Eeff=(undefined: mp) Z0=(undefined: mp) R=0.0 C=0.0 
!< P2 F=0.72193 Eeff=(undefined: mp) Z0=(undefined: mp) R=0.0 C=0.0 
0.721940000000000 -0.011587021995 0.0739266963618 0.9816758354506 0.1752516435526 0.9816758354518 0.1752516435457 -0.014708708915 0.0733694036706
!< P1 F=0.72194 Eeff=(undefined: mp) Z0=(undefined: mp) R=0.0 C=0.0 
!< P2 F=0.72194 Eeff=(undefined: mp) Z0=(undefined: mp) R=0.0 C=0.0 
0.721950000000000 -0.011265246611 0.0727315328690 0.9820213760437 0.1738310540400 0.9820213760429 0.1738310540446 -0.014385899865 0.0721791350742
!< P1 F=0.72195 Eeff=(undefined: mp) Z0=(undefined: mp) R=0.0 C=0.0 
!< P2 F=0.72195 Eeff=(undefined: mp) Z0=(undefined: mp) R=0.0 C=0.0 
0.721951000000000 -0.011206236849 0.0725051056380 0.9820827999334 0.1735822686444 0.9820827999334 0.1735822686443 -0.014326705852 0.0719535654925
!< P1 F=0.721951 Eeff=(undefined: mp) Z0=(undefined: mp) R=0.0 C=0.0 
!< P2 F=0.721951 Eeff=(undefined: mp) Z0=(undefined: mp) R=0.0 C=0.0 
0.721952000000000 -0.011137733799 0.0722405501996 0.9821537309023 0.1732954202899 0.9821537309022 0.1732954202906 -0.014257990128 0.0716899987758
!< P1 F=0.721952 Eeff=(undefined: mp) Z0=(undefined: mp) R=0.0 C=0.0 
!< P2 F=0.721952 Eeff=(undefined: mp) Z0=(undefined: mp) R=0.0 C=0.0 
0.721953000000000 -0.011056563229 0.0719249679563 0.9822373466244 0.1729576430597 0.9822373466248 0.1729576430573 -0.014176569265 0.0713755804845
!< P1 F=0.721953 Eeff=(undefined: mp) Z0=(undefined: mp) R=0.0 C=0.0 
!< P2 F=0.721953 Eeff=(undefined: mp) Z0=(undefined: mp) R=0.0 C=0.0 
0.721954000000000 -0.010958478621 0.0715409806604 0.9823379032717 0.1725515681079 0.9823379032711 0.1725515681115 -0.014078181882 0.0709929923526
!< P1 F=0.721954 Eeff=(undefined: mp) Z0=(undefined: mp) R=0.0 C=0.0 
!< P2 F=0.721954 Eeff=(undefined: mp) Z0=(undefined: mp) R=0.0 C=0.0 
0.721955000000000 -0.010837538140 0.0710640670875 0.9824613506470 0.1720527262733 0.9824613506461 0.1720527262783 -0.013956867966 0.0705177970470
!< P1 F=0.721955 Eeff=(undefined: mp) Z0=(undefined: mp) R=0.0 C=0.0 
!< P2 F=0.721955 Eeff=(undefined: mp) Z0=(undefined: mp) R=0.0 C=0.0 
0.721956000000000 -0.010684433522 0.0704555294149 0.9826170120919 0.1714224862601 0.9826170120922 0.1714224862589 -0.013803289315 0.0699114293130
!< P1 F=0.721956 Eeff=(undefined: mp) Z0=(undefined: mp) R=0.0 C=0.0 
!< P2 F=0.721956 Eeff=(undefined: mp) Z0=(undefined: mp) R=0.0 C=0.0 
0.721957000000000 -0.010484020224 0.0696517539176 0.9828200572649 0.1705973433168 0.9828200572652 0.1705973433152 -0.013602251255 0.0691104931561
!< P1 F=0.721957 Eeff=(undefined: mp) Z0=(undefined: mp) R=0.0 C=0.0 
!< P2 F=0.721957 Eeff=(undefined: mp) Z0=(undefined: mp) R=0.0 C=0.0 
0.721958000000000 -0.010209880566 0.0685402426476 0.9830969484251 0.1694649919043 0.9830969484252 0.1694649919040 -0.013327247049 0.0680028750085
!< P1 F=0.721958 Eeff=(undefined: mp) Z0=(undefined: mp) R=0.0 C=0.0 
!< P2 F=0.721958 Eeff=(undefined: mp) Z0=(undefined: mp) R=0.0 C=0.0 
0.721959000000000 -9.811454547e-3 0.0669014842293 0.9834983345346 0.1678062952573 0.9834983345345 0.1678062952583 -0.012927539219 0.0663698121312
!< P1 F=0.721959 Eeff=(undefined: mp) Z0=(undefined: mp) R=0.0 C=0.0 
!< P2 F=0.721959 Eeff=(undefined: mp) Z0=(undefined: mp) R=0.0 C=0.0 
0.721960000000000 -9.178473475e-3 0.0642423832813 0.9841346891259 0.1651289964947 0.9841346891256 0.1651289964963 -0.012292450497 0.0637198857935
!< P1 F=0.72196 Eeff=(undefined: mp) Z0=(undefined: mp) R=0.0 C=0.0 
!< P2 F=0.72196 Eeff=(undefined: mp) Z0=(undefined: mp) R=0.0 C=0.0 
0.721961000000000 -8.016419234e-3 0.0591762248112 0.9853011296059 0.1600487283367 0.9853011296060 0.1600487283363 -0.011126266703 0.0586710725086
!< P1 F=0.721961 Eeff=(undefined: mp) Z0=(undefined: mp) R=0.0 C=0.0 
!< P2 F=0.721961 Eeff=(undefined: mp) Z0=(undefined: mp) R=0.0 C=0.0 
0.721962000000000 -5.200828904e-3 0.0457262566973 0.9881249255902 0.1465987458140 0.9881249255896 0.1465987458176 -8.298923533e-3 0.0452666217124
!< P1 F=0.721962 Eeff=(undefined: mp) Z0=(undefined: mp) R=0.0 C=0.0 
!< P2 F=0.721962 Eeff=(undefined: mp) Z0=(undefined: mp) R=0.0 C=0.0 
0.721962100000000 -4.685950111e-3 0.0430468981868 0.9886412785067 0.1439216066761 0.9886412785071 0.1439216066734 -7.781564933e-3 0.0425962535806
!< P1 F=0.7219621 Eeff=(undefined: mp) Z0=(undefined: mp) R=0.0 C=0.0 
!< P2 F=0.7219621 Eeff=(undefined: mp) Z0=(undefined: mp) R=0.0 C=0.0 
0.721962200000000 -4.089244660e-3 0.0398380629358 0.9892397345872 0.1407158638436 0.9892397345873 0.1407158638429 -7.181827773e-3 0.0393981538933
!< P1 F=0.7219622 Eeff=(undefined: mp) Z0=(undefined: mp) R=0.0 C=0.0 
!< P2 F=0.7219622 Eeff=(undefined: mp) Z0=(undefined: mp) R=0.0 C=0.0 
0.721962300000000 -3.390449196e-3 0.0359227478198 0.9899406586090 0.1368048006081 0.9899406586092 0.1368048006066 -6.479246166e-3 0.0354958916724
!< P1 F=0.7219623 Eeff=(undefined: mp) Z0=(undefined: mp) R=0.0 C=0.0 
!< P2 F=0.7219623 Eeff=(undefined: mp) Z0=(undefined: mp) R=0.0 C=0.0 
0.721962400000000 -2.564122208e-3 0.0310414626652 0.9907696508793 0.1319293437501 0.9907696508793 0.1319293437501 -5.648061563e-3 0.0306308101016
!< P1 F=0.7219624 Eeff=(undefined: mp) Z0=(undefined: mp) R=0.0 C=0.0 
!< P2 F=0.7219624 Eeff=(undefined: mp) Z0=(undefined: mp) R=0.0 C=0.0 
0.721962500000000 -1.577912502e-3 0.0247882090762 0.9917593213577 0.1256841414074 0.9917593213577 0.1256841414067 -4.655406265e-3 0.0243982029996
!< P1 F=0.7219625 Eeff=(undefined: mp) Z0=(undefined: mp) R=0.0 C=0.0 
!< P2 F=0.7219625 Eeff=(undefined: mp) Z0=(undefined: mp) R=0.0 C=0.0 
0.721962600000000 -3.936355711e-4 0.0164880162393 0.9929483055191 0.1173952850292 0.9929483055184 0.1173952850347 -3.462195154e-3 0.0161252235106
!< P1 F=0.7219626 Eeff=(undefined: mp) Z0=(undefined: mp) R=0.0 C=0.0 
!< P2 F=0.7219626 Eeff=(undefined: mp) Z0=(undefined: mp) R=0.0 C=0.0 
0.721962700000000 0.0010177771999 0.0049518799328 0.9943665306528 0.1058756144015 0.9943665306530 0.1058756143997 -2.037645009e-3 0.0046265525042
!< P1 F=0.7219627 Eeff=(undefined: mp) Z0=(undefined: mp) R=0.0 C=0.0 
!< P2 F=0.7219627 Eeff=(undefined: mp) Z0=(undefined: mp) R=0.0 C=0.0 
0.721962800000000 0.0026131191916 -0.012157588560 0.9959726260150 0.0887912883084 0.9959726260150 0.0887912883080 -4.212962594e-4 -0.012428107703
!< P1 F=0.7219628 Eeff=(undefined: mp) Z0=(undefined: mp) R=0.0 C=0.0 
!< P2 F=0.7219628 Eeff=(undefined: mp) Z0=(undefined: mp) R=0.0 C=0.0 
0.721962900000000 0.0039516674980 -0.040086261440 0.9973305180467 0.0609041360970 0.9973305180467 0.0609041360974 9.5541385034e-4 -0.040269234124
!< P1 F=0.7219629 Eeff=(undefined: mp) Z0=(undefined: mp) R=0.0 C=0.0 
!< P2 F=0.7219629 Eeff=(undefined: mp) Z0=(undefined: mp) R=0.0 C=0.0 
0.721963000000000 0.0021716129161 -0.093433861167 0.9955938479651 0.0076346312555 0.9955938479651 0.0076346312541 -7.384617271e-4 -0.093456176842
!< P1 F=0.721963 Eeff=(undefined: mp) Z0=(undefined: mp) R=0.0 C=0.0 
!< P2 F=0.721963 Eeff=(undefined: mp) Z0=(undefined: mp) R=0.0 C=0.0 
0.721963100000000 -0.029314398792 -0.229815613508 0.9642596432053 -0.128564342987 0.9642596432054 -0.128564342985 -0.031921694970 -0.229467983775
!< P1 F=0.7219631 Eeff=(undefined: mp) Z0=(undefined: mp) R=0.0 C=0.0 
!< P2 F=0.7219631 Eeff=(undefined: mp) Z0=(undefined: mp) R=0.0 C=0.0 
0.721963110000000 -0.039843819642 -0.255109461082 0.9537655305350 -0.153827649195 0.9537655305346 -0.153827649197 -0.042380623055 -0.254700313876
!< P1 F=0.72196311 Eeff=(undefined: mp) Z0=(undefined: mp) R=0.0 C=0.0 
!< P2 F=0.72196311 Eeff=(undefined: mp) Z0=(undefined: mp) R=0.0 C=0.0 
0.721963120000000 -0.054098114700 -0.284299551539 0.9395552112124 -0.182984054129 0.9395552112122 -0.182984054129 -0.056547106034 -0.283822595676
!< P1 F=0.72196312 Eeff=(undefined: mp) Z0=(undefined: mp) R=0.0 C=0.0 
!< P2 F=0.72196312 Eeff=(undefined: mp) Z0=(undefined: mp) R=0.0 C=0.0 
0.721963130000000 -0.073627847976 -0.317971632585 0.9200809404464 -0.216619583390 0.9200809404463 -0.216619583390 -0.075966073421 -0.317421131643
!< P1 F=0.72196313 Eeff=(undefined: mp) Z0=(undefined: mp) R=0.0 C=0.0 
!< P2 F=0.72196313 Eeff=(undefined: mp) Z0=(undefined: mp) R=0.0 C=0.0 
0.721963140000000 -0.100938213416 -0.356885468972 0.8928419130496 -0.255494730697 0.8928419130502 -0.255494730695 -0.103133947776 -0.356257139871
!< P1 F=0.72196314 Eeff=(undefined: mp) Z0=(undefined: mp) R=0.0 C=0.0 
!< P2 F=0.72196314 Eeff=(undefined: mp) Z0=(undefined: mp) R=0.0 C=0.0 
0.721963150000000 -0.139652936058 -0.401186476399 0.8542200810711 -0.299757438110 0.8542200810719 -0.299757438108 -0.141663106837 -0.400481080149
!< P1 F=0.72196315 Eeff=(undefined: mp) Z0=(undefined: mp) R=0.0 C=0.0 
!< P2 F=0.72196315 Eeff=(undefined: mp) Z0=(undefined: mp) R=0.0 C=0.0 
0.721963160000000 -0.195449999957 -0.450090869032 0.7985455718768 -0.348629426138 0.7985455718772 -0.348629426137 -0.197215320082 -0.449320164687
!< P1 F=0.72196316 Eeff=(undefined: mp) Z0=(undefined: mp) R=0.0 C=0.0 
!< P2 F=0.72196316 Eeff=(undefined: mp) Z0=(undefined: mp) R=0.0 C=0.0 
0.721963170000000 -0.276731421494 -0.499943020753 0.7174264575089 -0.398467030535 0.7174264575070 -0.398467030538 -0.278172433335 -0.499142665950
!< P1 F=0.72196317 Eeff=(undefined: mp) Z0=(undefined: mp) R=0.0 C=0.0 
!< P2 F=0.72196317 Eeff=(undefined: mp) Z0=(undefined: mp) R=0.0 C=0.0 
0.721963180000000 -0.393965716219 -0.540194535316 0.6004022620987 -0.438745942570 0.6004022620989 -0.438745942570 -0.394986876960 -0.539448318724
!< P1 F=0.72196318 Eeff=(undefined: mp) Z0=(undefined: mp) R=0.0 C=0.0 
!< P2 F=0.72196318 Eeff=(undefined: mp) Z0=(undefined: mp) R=0.0 C=0.0 
0.721963190000000 -0.555550223158 -0.547380784090 0.4390707403387 -0.446043845082 0.4390707403366 -0.446043845084 -0.556065762921 -0.546857056781
!< P1 F=0.72196319 Eeff=(undefined: mp) Z0=(undefined: mp) R=0.0 C=0.0 
!< P2 F=0.72196319 Eeff=(undefined: mp) Z0=(undefined: mp) R=0.0 C=0.0 
0.721963200000000 -0.751020476708 -0.481470769615 0.2438499912045 -0.380383127073 0.2438499912050 -0.380383127073 -0.751037247371 -0.481444608947
!< P1 F=0.7219632 Eeff=(undefined: mp) Z0=(undefined: mp) R=0.0 C=0.0 
!< P2 F=0.7219632 Eeff=(undefined: mp) Z0=(undefined: mp) R=0.0 C=0.0 
0.721963210000000 -0.926906575609 -0.306407104385 0.0681006938042 -0.205721126726 0.0681006938045 -0.205721126726 -0.926649694918 -0.307183099196
!< P1 F=0.72196321 Eeff=(undefined: mp) Z0=(undefined: mp) R=0.0 C=0.0 
!< P2 F=0.72196321 Eeff=(undefined: mp) Z0=(undefined: mp) R=0.0 C=0.0 
0.721963220000000 -0.997481335462 -0.049614217412 -2.560509466e-3 0.0506246800630 -2.560509253e-3 0.0506246800735 -0.997396916494 -0.051283297422
!< P1 F=0.72196322 Eeff=(undefined: mp) Z0=(undefined: mp) R=0.0 C=0.0 
!< P2 F=0.72196322 Eeff=(undefined: mp) Z0=(undefined: mp) R=0.0 C=0.0 
0.721963230000000 -0.934831931343 0.1924475042848 0.0598095339505 0.2923628531137 0.0598095339487 0.2923628531140 -0.935305607472 0.1901320656732
!< P1 F=0.72196323 Eeff=(undefined: mp) Z0=(undefined: mp) R=0.0 C=0.0 
!< P2 F=0.72196323 Eeff=(undefined: mp) Z0=(undefined: mp) R=0.0 C=0.0 
0.721963240000000 -0.797657068487 0.3501689656873 0.1966547854847 0.4499464322647 0.1966547854839 0.4499464322650 -0.798789404345 0.3475781796124
!< P1 F=0.72196324 Eeff=(undefined: mp) Z0=(undefined: mp) R=0.0 C=0.0 
!< P2 F=0.72196324 Eeff=(undefined: mp) Z0=(undefined: mp) R=0.0 C=0.0 
0.721963250000000 -0.651945128039 0.4260173598276 0.3420860699082 0.5257888168508 0.3420860699073 0.5257888168513 -0.653638387936 0.4234148068548
!< P1 F=0.72196325 Eeff=(undefined: mp) Z0=(undefined: mp) R=0.0 C=0.0 
!< P2 F=0.72196325 Eeff=(undefined: mp) Z0=(undefined: mp) R=0.0 C=0.0 
0.721963260000000 -0.528569872744 0.4496702520394 0.4652544389145 0.5494987362379 0.4652544389146 0.5494987362378 -0.530676677946 0.4471819645579
!< P1 F=0.72196326 Eeff=(undefined: mp) Z0=(undefined: mp) R=0.0 C=0.0 
!< P2 F=0.72196326 Eeff=(undefined: mp) Z0=(undefined: mp) R=0.0 C=0.0 
0.721963270000000 -0.431908347249 0.4464733454689 0.5617703382171 0.5463797383376 0.5617703382184 0.5463797383361 -0.434306287217 0.4441411009097
!< P1 F=0.72196327 Eeff=(undefined: mp) Z0=(undefined: mp) R=0.0 C=0.0 
!< P2 F=0.72196327 Eeff=(undefined: mp) Z0=(undefined: mp) R=0.0 C=0.0 
0.721963280000000 -0.358298761141 0.4311748085630 0.6352787869062 0.5311601878279 0.6352787869057 0.5311601878285 -0.360898927355 0.4290007948819
!< P1 F=0.72196328 Eeff=(undefined: mp) Z0=(undefined: mp) R=0.0 C=0.0 
!< P2 F=0.72196328 Eeff=(undefined: mp) Z0=(undefined: mp) R=0.0 C=0.0 
0.721963290000000 -0.302096381724 0.4113189334570 0.6914101431968 0.5113770869082 0.6914101431970 0.5113770869079 -0.304838586971 0.4092907582183
!< P1 F=0.72196329 Eeff=(undefined: mp) Z0=(undefined: mp) R=0.0 C=0.0 
!< P2 F=0.72196329 Eeff=(undefined: mp) Z0=(undefined: mp) R=0.0 C=0.0 
0.721963300000000 -0.258922026325 0.3906240067122 0.7345340654070 0.4907463463059 0.7345340654029 0.4907463463120 -0.261765115769 0.3887245226516
!< P1 F=0.7219633 Eeff=(undefined: mp) Z0=(undefined: mp) R=0.0 C=0.0 
!< P2 F=0.7219633 Eeff=(undefined: mp) Z0=(undefined: mp) R=0.0 C=0.0 
0.721963400000000 -0.097495887352 0.2522286439254 0.8958180325402 0.3526830244140 0.8958180325405 0.3526830244132 -0.100623818692 0.2509971792296
!< P1 F=0.7219634 Eeff=(undefined: mp) Z0=(undefined: mp) R=0.0 C=0.0 
!< P2 F=0.7219634 Eeff=(undefined: mp) Z0=(undefined: mp) R=0.0 C=0.0 
0.721963500000000 -0.060014587806 0.1949906606435 0.9332855195884 0.2955588442896 0.9332855195867 0.2955588442950 -0.063170673565 0.1939911711674
!< P1 F=0.7219635 Eeff=(undefined: mp) Z0=(undefined: mp) R=0.0 C=0.0 
!< P2 F=0.7219635 Eeff=(undefined: mp) Z0=(undefined: mp) R=0.0 C=0.0 
0.721963600000000 -0.044673134027 0.1653854282164 0.9486261380191 0.2660083109734 0.9486261380176 0.2660083109789 -0.047831395062 0.1644998067420
!< P1 F=0.7219636 Eeff=(undefined: mp) Z0=(undefined: mp) R=0.0 C=0.0 
!< P2 F=0.7219636 Eeff=(undefined: mp) Z0=(undefined: mp) R=0.0 C=0.0 
0.721963700000000 -0.036548891951 0.1474411727790 0.9567517649663 0.2480954237616 0.9567517649666 0.2480954237605 -0.039704873458 0.1466227948037
!< P1 F=0.7219637 Eeff=(undefined: mp) Z0=(undefined: mp) R=0.0 C=0.0 
!< P2 F=0.7219637 Eeff=(undefined: mp) Z0=(undefined: mp) R=0.0 C=0.0 
0.721963800000000 -0.031578499043 0.1354347655086 0.9617238743057 0.2361088991858 0.9617238743056 0.2361088991862 -0.034731529749 0.1346606778225
!< P1 F=0.7219638 Eeff=(undefined: mp) Z0=(undefined: mp) R=0.0 C=0.0 
!< P2 F=0.7219638 Eeff=(undefined: mp) Z0=(undefined: mp) R=0.0 C=0.0 
0.721963900000000 -0.028244860148 0.1268483348485 0.9650591456531 0.2275358723390 0.9650591456531 0.2275358723390 -0.031395102934 0.1261055894520
!< P1 F=0.7219639 Eeff=(undefined: mp) Z0=(undefined: mp) R=0.0 C=0.0 
!< P2 F=0.7219639 Eeff=(undefined: mp) Z0=(undefined: mp) R=0.0 C=0.0 
0.721964000000000 -0.025861485793 0.1204048398511 0.9674439837607 0.2211017783275 0.9674439837611 0.2211017783256 -0.029009274801 0.1196854372205
!< P1 F=0.721964 Eeff=(undefined: mp) Z0=(undefined: mp) R=0.0 C=0.0 
!< P2 F=0.721964 Eeff=(undefined: mp) Z0=(undefined: mp) R=0.0 C=0.0 
0.721965000000000 -0.017531560729 0.0953613796715 0.9757824505035 0.1960802410496 0.9757824505038 0.1960802410483 -0.020666938802 0.0947313358653
!< P1 F=0.721965 Eeff=(undefined: mp) Z0=(undefined: mp) R=0.0 C=0.0 
!< P2 F=0.721965 Eeff=(undefined: mp) Z0=(undefined: mp) R=0.0 C=0.0 
0.721966000000000 -0.015419981947 0.0882197902417 0.9778985311247 0.1889284403863 0.9778985311246 0.1889284403866 -0.018550997180 0.0876148830770
!< P1 F=0.721966 Eeff=(undefined: mp) Z0=(undefined: mp) R=0.0 C=0.0 
!< P2 F=0.721966 Eeff=(undefined: mp) Z0=(undefined: mp) R=0.0 C=0.0 
0.721967000000000 -0.014459648878 0.0848394092142 0.9788622792216 0.1855312144389 0.9788622792222 0.1855312144355 -0.017588467170 0.0842463804801
!< P1 F=0.721967 Eeff=(undefined: mp) Z0=(undefined: mp) R=0.0 C=0.0 
!< P2 F=0.721967 Eeff=(undefined: mp) Z0=(undefined: mp) R=0.0 C=0.0 
0.721968000000000 -0.013910100488 0.0828660094982 0.9794143837193 0.1835407271546 0.9794143837194 0.1835407271541 -0.017037975954 0.0822798505175
!< P1 F=0.721968 Eeff=(undefined: mp) Z0=(undefined: mp) R=0.0 C=0.0 
!< P2 F=0.721968 Eeff=(undefined: mp) Z0=(undefined: mp) R=0.0 C=0.0 
0.721969000000000 -0.013554387244 0.0815738626138 0.9797728863296 0.1822280843885 0.9797728863297 0.1822280843879 -0.016681311445 0.0809922855862
!< P1 F=0.721969 Eeff=(undefined: mp) Z0=(undefined: mp) R=0.0 C=0.0 
!< P2 F=0.721969 Eeff=(undefined: mp) Z0=(undefined: mp) R=0.0 C=0.0 
0.721970000000000 -0.013304869492 0.0806612489482 0.9800250589484 0.1812943110075 0.9800250589487 0.1812943110054 -0.016431109653 0.0800829274517
!< P1 F=0.72197 Eeff=(undefined: mp) Z0=(undefined: mp) R=0.0 C=0.0 
!< P2 F=0.72197 Eeff=(undefined: mp) Z0=(undefined: mp) R=0.0 C=0.0 
0.721980000000000 -0.012441761436 0.0774946021189 0.9809125323459 0.1779055735994 0.9809125323459 0.1779055735996 -0.015565478438 0.0769280616331
!< P1 F=0.72198 Eeff=(undefined: mp) Z0=(undefined: mp) R=0.0 C=0.0 
!< P2 F=0.72198 Eeff=(undefined: mp) Z0=(undefined: mp) R=0.0 C=0.0 
0.721990000000000 -0.012207406027 0.0766683649071 0.9811698678438 0.1768576588624 0.9811698678434 0.1768576588647 -0.015330352514 0.0761054481073
!< P1 F=0.72199 Eeff=(undefined: mp) Z0=(undefined: mp) R=0.0 C=0.0 
!< P2 F=0.72199 Eeff=(undefined: mp) Z0=(undefined: mp) R=0.0 C=0.0 
0.722000000000000 -0.012066946030 0.0761975582461 0.9813331931183 0.1761632340533 0.9813331931175 0.1761632340578 -0.015189514170 0.0756370129532
!< P1 F=0.722 Eeff=(undefined: mp) Z0=(undefined: mp) R=0.0 C=0.0 
!< P2 F=0.722 Eeff=(undefined: mp) Z0=(undefined: mp) R=0.0 C=0.0 
0.722010000000000 -0.012008406315 0.0760409083909 0.9814148526851 0.1757795932087 0.9814148526848 0.1757795932105 -0.015130558692 0.0754817048366
!< P1 F=0.72201 Eeff=(undefined: mp) Z0=(undefined: mp) R=0.0 C=0.0 
!< P2 F=0.72201 Eeff=(undefined: mp) Z0=(undefined: mp) R=0.0 C=0.0 
0.722020000000000 -0.011948681513 0.0758794900583 0.9814976062584 0.1753909373660 0.9814976062580 0.1753909373676 -0.015070543577 0.0753216218497
!< P1 F=0.72202 Eeff=(undefined: mp) Z0=(undefined: mp) R=0.0 C=0.0 
!< P2 F=0.72202 Eeff=(undefined: mp) Z0=(undefined: mp) R=0.0 C=0.0 
0.722030000000000 -0.011899507317 0.0757584387734 0.9815697416420 0.1750425748223 0.9815697416408 0.1750425748287 -0.015021109549 0.0752017658621
!< P1 F=0.72203 Eeff=(undefined: mp) Z0=(undefined: mp) R=0.0 C=0.0 
!< P2 F=0.72203 Eeff=(undefined: mp) Z0=(undefined: mp) R=0.0 C=0.0 
0.722040000000000 -0.011856746795 0.0756619332336 0.9816354017937 0.1747187092347 0.9816354017931 0.1747187092382 -0.014978107927 0.0751063703581
!< P1 F=0.72204 Eeff=(undefined: mp) Z0=(undefined: mp) R=0.0 C=0.0 
!< P2 F=0.72204 Eeff=(undefined: mp) Z0=(undefined: mp) R=0.0 C=0.0 
0.722050000000000 -0.011818189187 0.0755815083656 0.9816968000277 0.1744108907543 0.9816968000281 0.1744108907525 -0.014939322895 0.0750269993612
!< P1 F=0.72205 Eeff=(undefined: mp) Z0=(undefined: mp) R=0.0 C=0.0 
!< P2 F=0.72205 Eeff=(undefined: mp) Z0=(undefined: mp) R=0.0 C=0.0 
0.722060000000000 -0.011782516908 0.0755121040118 0.9817552570235 0.1741140709974 0.9817552570237 0.1741140709966 -0.014903430022 0.0749586107808
!< P1 F=0.72206 Eeff=(undefined: mp) Z0=(undefined: mp) R=0.0 C=0.0 
!< P2 F=0.72206 Eeff=(undefined: mp) Z0=(undefined: mp) R=0.0 C=0.0 
0.722070000000000 -0.011748959860 0.0754507694141 0.9818115437953 0.1738253025432 0.9818115437946 0.1738253025473 -0.014869657907 0.0748982639142
!< P1 F=0.72207 Eeff=(undefined: mp) Z0=(undefined: mp) R=0.0 C=0.0 
!< P2 F=0.72207 Eeff=(undefined: mp) Z0=(undefined: mp) R=0.0 C=0.0 