! Sonnet Data File
! From: em Version : 14.54
! From Project: S8_truegapdistance_nofastfill_gk2
! Data is De-embedded 
! Data File Written: 10/05/2014 05:00:25
!< ->  _gk:
!< ->  
!< ->  cell size to 15 x 15 um
!< ->  all polygons to default mesh (staircase, Xmin/Ymin = 1, Xmax/Ymax=100)
!< ->  created Tech Layers
!< ->  MHz
!< ->  enabled current density
!< ->  changed to freq sweep combination
!< ->  polygon edge checking set to 2
!< ->  Q-factor accuracy disable
!< ->  Box Resonace Info disables
!< ->  ABS caching to multisweep
!< ->  ABS freq resolution to 5e-5 MHz
!< ->  slightly enlarged the box size to make it composite number of cells
!< ->  set a fixed cal length of 3000um  to limit cal standard memory
!< ->  
!< ->  _gk2:
!< ->  
!< ->  lossless dielectric layers for lossless model
!< ->  disabled current density
!< ->  
!< HDATE 09/27/2014 19:31:57
!< MDATE 10/05/2014 00:28:30
# MHZ S RI R 50.00000
600.0000000000000 0.0047689391992 0.0023057314790 0.4002805040885 -0.916377340497 0.4002805040892 -0.916377340497 0.0049322545021 0.0019318475239
!< P1 F=600.0 Eeff=(7.06520015 0.0) Z0=(50.9569378 0.0) R=3.1135e-5 C=0.14312849 
!< P2 F=600.0 Eeff=(7.06520015 0.0) Z0=(50.9569378 0.0) R=3.1135e-5 C=0.14312849 
700.0135000000000 0.0056574506414 0.0015331936105 0.2168326365337 -0.976191178630 0.2168326365353 -0.976191178628 0.0057745261622 0.0010061138320
!< P1 F=700.0135 Eeff=(7.06573992 0.0) Z0=(50.9551548 0.0) R=3.13359e-5 C=0.14311379 
!< P2 F=700.0135 Eeff=(7.06573992 0.0) Z0=(50.9551548 0.0) R=3.13359e-5 C=0.14311379 
705.0000000000000 0.0056932525759 0.0014873709575 0.2074136835985 -0.978235607998 0.2074136835907 -0.978235608001 0.0058069725882 9.5102743452e-4
!< P1 F=705.0 Eeff=(7.06576907 0.0) Z0=(50.955059 0.0) R=2.19267e-5 C=0.143113 
!< P2 F=705.0 Eeff=(7.06576907 0.0) Z0=(50.955059 0.0) R=2.19267e-5 C=0.143113 
705.0005000000000 0.0056932560775 0.0014873663385 0.2074127380535 -0.978235808338 0.2074127380535 -0.978235808338 0.0058069757525 9.5102185204e-4
705.0010000000000 0.0056932595798 0.0014873617194 0.2074117925751 -0.978236008792 0.2074117925751 -0.978236008792 0.0058069789174 9.5101626951e-4
705.0015000000000 0.0056932630820 0.0014873571002 0.2074108470964 -0.978236209245 0.2074108470964 -0.978236209245 0.0058069820822 9.5101068698e-4
705.0020000000000 0.0056932665843 0.0014873524810 0.2074099016176 -0.978236409697 0.2074099016176 -0.978236409697 0.0058069852471 9.5100510443e-4
705.0024999999999 0.0056932700866 0.0014873478619 0.2074089561385 -0.978236610148 0.2074089561385 -0.978236610148 0.0058069884119 9.5099952187e-4
705.0029999999999 0.0056932735888 0.0014873432427 0.2074080106593 -0.978236810598 0.2074080106593 -0.978236810598 0.0058069915767 9.5099393930e-4
705.0034999999999 0.0056932770910 0.0014873386235 0.2074070651798 -0.978237011047 0.2074070651798 -0.978237011047 0.0058069947415 9.5098835672e-4
705.0040000000000 0.0056932805932 0.0014873340043 0.2074061197001 -0.978237211496 0.2074061197001 -0.978237211496 0.0058069979062 9.5098277413e-4
705.0045000000000 0.0056932840954 0.0014873293852 0.2074051742202 -0.978237411943 0.2074051742202 -0.978237411943 0.0058070010710 9.5097719153e-4
705.0050000000000 0.0056932875976 0.0014873247660 0.2074042287401 -0.978237612390 0.2074042287401 -0.978237612390 0.0058070042357 9.5097160891e-4
705.0055000000000 0.0056932910997 0.0014873201468 0.2074032832598 -0.978237812835 0.2074032832598 -0.978237812835 0.0058070074005 9.5096602629e-4
705.0060000000000 0.0056932946019 0.0014873155276 0.2074023377793 -0.978238013280 0.2074023377793 -0.978238013280 0.0058070105652 9.5096044365e-4
705.0065000000000 0.0056932981040 0.0014873109084 0.2074013922985 -0.978238213724 0.2074013922985 -0.978238213724 0.0058070137299 9.5095486100e-4
705.0069999999999 0.0056933016061 0.0014873062892 0.2074004468176 -0.978238414166 0.2074004468176 -0.978238414166 0.0058070168946 9.5094927834e-4
705.0074999999999 0.0056933051082 0.0014873016700 0.2073995013364 -0.978238614608 0.2073995013364 -0.978238614608 0.0058070200592 9.5094369567e-4
705.0079999999999 0.0056933086103 0.0014872970508 0.2073985558551 -0.978238815049 0.2073985558551 -0.978238815049 0.0058070232239 9.5093811298e-4
705.0084999999999 0.0056933121124 0.0014872924316 0.2073976103735 -0.978239015489 0.2073976103735 -0.978239015489 0.0058070263885 9.5093253029e-4
705.0090000000000 0.0056933156144 0.0014872878124 0.2073966648917 -0.978239215929 0.2073966648917 -0.978239215929 0.0058070295532 9.5092694758e-4
705.0095000000000 0.0056933191165 0.0014872831932 0.2073957194097 -0.978239416367 0.2073957194097 -0.978239416367 0.0058070327178 9.5092136486e-4
705.0100000000000 0.0056933226185 0.0014872785739 0.2073947739275 -0.978239616804 0.2073947739275 -0.978239616804 0.0058070358824 9.5091578213e-4
705.0105000000000 0.0056933261205 0.0014872739547 0.2073938284451 -0.978239817241 0.2073938284451 -0.978239817241 0.0058070390469 9.5091019939e-4
705.0110000000000 0.0056933296225 0.0014872693355 0.2073928829624 -0.978240017676 0.2073928829624 -0.978240017676 0.0058070422115 9.5090461664e-4
705.0115000000000 0.0056933331245 0.0014872647163 0.2073919374796 -0.978240218111 0.2073919374796 -0.978240218111 0.0058070453761 9.5089903387e-4
705.0119999999999 0.0056933366265 0.0014872600970 0.2073909919965 -0.978240418545 0.2073909919965 -0.978240418545 0.0058070485406 9.5089345110e-4
705.0124999999999 0.0056933401285 0.0014872554778 0.2073900465133 -0.978240618978 0.2073900465133 -0.978240618978 0.0058070517051 9.5088786831e-4
705.0129999999999 0.0056933436304 0.0014872508586 0.2073891010298 -0.978240819410 0.2073891010298 -0.978240819410 0.0058070548696 9.5088228551e-4
705.0135000000000 0.0056933471323 0.0014872462393 0.2073881555461 -0.978241019841 0.2073881555461 -0.978241019841 0.0058070580341 9.5087670270e-4
705.0140000000000 0.0056933506342 0.0014872416201 0.2073872100622 -0.978241220271 0.2073872100622 -0.978241220271 0.0058070611986 9.5087111988e-4
705.0145000000000 0.0056933541361 0.0014872370008 0.2073862645781 -0.978241420700 0.2073862645781 -0.978241420700 0.0058070643631 9.5086553705e-4
705.0150000000000 0.0056933576380 0.0014872323816 0.2073853190938 -0.978241621128 0.2073853190938 -0.978241621128 0.0058070675275 9.5085995420e-4
705.0155000000000 0.0056933611399 0.0014872277623 0.2073843736093 -0.978241821555 0.2073843736093 -0.978241821555 0.0058070706920 9.5085437135e-4
705.0160000000000 0.0056933646418 0.0014872231431 0.2073834281245 -0.978242021982 0.2073834281245 -0.978242021982 0.0058070738564 9.5084878848e-4
705.0165000000000 0.0056933681436 0.0014872185238 0.2073824826396 -0.978242222407 0.2073824826396 -0.978242222407 0.0058070770208 9.5084320560e-4
705.0169999999999 0.0056933716454 0.0014872139045 0.2073815371544 -0.978242422832 0.2073815371544 -0.978242422832 0.0058070801852 9.5083762271e-4
705.0174999999999 0.0056933751472 0.0014872092853 0.2073805916691 -0.978242623256 0.2073805916691 -0.978242623256 0.0058070833496 9.5083203981e-4
705.0179999999999 0.0056933786490 0.0014872046660 0.2073796461835 -0.978242823679 0.2073796461835 -0.978242823679 0.0058070865140 9.5082645690e-4
705.0185000000000 0.0056933821508 0.0014872000467 0.2073787006977 -0.978243024101 0.2073787006977 -0.978243024101 0.0058070896783 9.5082087397e-4
705.0190000000000 0.0056933856526 0.0014871954274 0.2073777552117 -0.978243224522 0.2073777552117 -0.978243224522 0.0058070928427 9.5081529104e-4
705.0195000000000 0.0056933891543 0.0014871908081 0.2073768097255 -0.978243424942 0.2073768097255 -0.978243424942 0.0058070960070 9.5080970809e-4
705.0200000000000 0.0056933926561 0.0014871861889 0.2073758642391 -0.978243625361 0.2073758642391 -0.978243625361 0.0058070991713 9.5080412513e-4
705.0205000000000 0.0056933961578 0.0014871815696 0.2073749187524 -0.978243825779 0.2073749187524 -0.978243825779 0.0058071023356 9.5079854216e-4
705.0210000000000 0.0056933996595 0.0014871769503 0.2073739732656 -0.978244026196 0.2073739732656 -0.978244026196 0.0058071054999 9.5079295918e-4
705.0214999999999 0.0056934031612 0.0014871723310 0.2073730277785 -0.978244226613 0.2073730277785 -0.978244226613 0.0058071086641 9.5078737618e-4
705.0219999999999 0.0056934066629 0.0014871677117 0.2073720822913 -0.978244427028 0.2073720822913 -0.978244427028 0.0058071118284 9.5078179318e-4
705.0224999999999 0.0056934101646 0.0014871630924 0.2073711368038 -0.978244627443 0.2073711368038 -0.978244627443 0.0058071149926 9.5077621016e-4
705.0230000000000 0.0056934136662 0.0014871584731 0.2073701913161 -0.978244827857 0.2073701913161 -0.978244827857 0.0058071181568 9.5077062713e-4
705.0235000000000 0.0056934171679 0.0014871538538 0.2073692458282 -0.978245028270 0.2073692458282 -0.978245028270 0.0058071213210 9.5076504409e-4
705.0240000000000 0.0056934206695 0.0014871492345 0.2073683003401 -0.978245228681 0.2073683003401 -0.978245228681 0.0058071244852 9.5075946104e-4
705.0245000000000 0.0056934241711 0.0014871446151 0.2073673548518 -0.978245429092 0.2073673548518 -0.978245429092 0.0058071276494 9.5075387798e-4
705.0250000000000 0.0056934276727 0.0014871399958 0.2073664093633 -0.978245629502 0.2073664093633 -0.978245629502 0.0058071308136 9.5074829491e-4
705.0255000000000 0.0056934311743 0.0014871353765 0.2073654638745 -0.978245829912 0.2073654638745 -0.978245829912 0.0058071339777 9.5074271182e-4
705.0260000000000 0.0056934346758 0.0014871307572 0.2073645183856 -0.978246030320 0.2073645183856 -0.978246030320 0.0058071371418 9.5073712872e-4
705.0264999999999 0.0056934381774 0.0014871261378 0.2073635728964 -0.978246230727 0.2073635728964 -0.978246230727 0.0058071403060 9.5073154562e-4
705.0269999999999 0.0056934416789 0.0014871215185 0.2073626274071 -0.978246431134 0.2073626274071 -0.978246431134 0.0058071434701 9.5072596250e-4
705.0274999999999 0.0056934451804 0.0014871168992 0.2073616819175 -0.978246631539 0.2073616819175 -0.978246631539 0.0058071466342 9.5072037936e-4
705.0280000000000 0.0056934486819 0.0014871122798 0.2073607364277 -0.978246831944 0.2073607364277 -0.978246831944 0.0058071497982 9.5071479622e-4
705.0285000000000 0.0056934521834 0.0014871076605 0.2073597909377 -0.978247032347 0.2073597909377 -0.978247032347 0.0058071529623 9.5070921307e-4
705.0290000000000 0.0056934556849 0.0014871030411 0.2073588454475 -0.978247232750 0.2073588454475 -0.978247232750 0.0058071561263 9.5070362990e-4
705.0295000000000 0.0056934591864 0.0014870984218 0.2073578999571 -0.978247433152 0.2073578999571 -0.978247433152 0.0058071592904 9.5069804672e-4
705.0300000000000 0.0056934626878 0.0014870938024 0.2073569544665 -0.978247633553 0.2073569544665 -0.978247633553 0.0058071624544 9.5069246354e-4
705.0305000000000 0.0056934661893 0.0014870891831 0.2073560089756 -0.978247833953 0.2073560089756 -0.978247833953 0.0058071656184 9.5068688034e-4
705.0309999999999 0.0056934696907 0.0014870845637 0.2073550634846 -0.978248034352 0.2073550634846 -0.978248034352 0.0058071687824 9.5068129712e-4
705.0314999999999 0.0056934731921 0.0014870799443 0.2073541179933 -0.978248234751 0.2073541179933 -0.978248234751 0.0058071719464 9.5067571390e-4
705.0319999999999 0.0056934766935 0.0014870753250 0.2073531725018 -0.978248435148 0.2073531725018 -0.978248435148 0.0058071751103 9.5067013067e-4
705.0324999999999 0.0056934801949 0.0014870707056 0.2073522270101 -0.978248635544 0.2073522270101 -0.978248635544 0.0058071782743 9.5066454742e-4
705.0330000000000 0.0056934836962 0.0014870660862 0.2073512815183 -0.978248835940 0.2073512815183 -0.978248835940 0.0058071814382 9.5065896416e-4
705.0335000000000 0.0056934871976 0.0014870614669 0.2073503360261 -0.978249036334 0.2073503360261 -0.978249036334 0.0058071846021 9.5065338089e-4
705.0340000000000 0.0056934906989 0.0014870568475 0.2073493905338 -0.978249236728 0.2073493905338 -0.978249236728 0.0058071877660 9.5064779761e-4
705.0345000000000 0.0056934942002 0.0014870522281 0.2073484450413 -0.978249437121 0.2073484450413 -0.978249437121 0.0058071909299 9.5064221432e-4
705.0350000000000 0.0056934977015 0.0014870476087 0.2073474995486 -0.978249637513 0.2073474995486 -0.978249637513 0.0058071940938 9.5063663102e-4
705.0355000000000 0.0056935012028 0.0014870429893 0.2073465540556 -0.978249837904 0.2073465540556 -0.978249837904 0.0058071972576 9.5063104770e-4
705.0359999999999 0.0056935047041 0.0014870383699 0.2073456085625 -0.978250038294 0.2073456085625 -0.978250038294 0.0058072004215 9.5062546438e-4
705.0364999999999 0.0056935082054 0.0014870337505 0.2073446630691 -0.978250238683 0.2073446630691 -0.978250238683 0.0058072035853 9.5061988104e-4
705.0369999999999 0.0056935117066 0.0014870291311 0.2073437175755 -0.978250439071 0.2073437175755 -0.978250439071 0.0058072067491 9.5061429769e-4
705.0375000000000 0.0056935152078 0.0014870245117 0.2073427720817 -0.978250639458 0.2073427720817 -0.978250639458 0.0058072099129 9.5060871433e-4
705.0380000000000 0.0056935187091 0.0014870198923 0.2073418265877 -0.978250839845 0.2073418265877 -0.978250839845 0.0058072130767 9.5060313095e-4
705.0385000000000 0.0056935222103 0.0014870152729 0.2073408810935 -0.978251040230 0.2073408810935 -0.978251040230 0.0058072162405 9.5059754757e-4
705.0390000000000 0.0056935257114 0.0014870106535 0.2073399355991 -0.978251240615 0.2073399355991 -0.978251240615 0.0058072194042 9.5059196418e-4
705.0395000000000 0.0056935292126 0.0014870060341 0.2073389901045 -0.978251440998 0.2073389901045 -0.978251440998 0.0058072225680 9.5058638077e-4
705.0400000000000 0.0056935327138 0.0014870014146 0.2073380446096 -0.978251641381 0.2073380446096 -0.978251641381 0.0058072257317 9.5058079735e-4
705.0405000000000 0.0056935362149 0.0014869967952 0.2073370991146 -0.978251841763 0.2073370991146 -0.978251841763 0.0058072288954 9.5057521392e-4
705.0409999999999 0.0056935397161 0.0014869921758 0.2073361536193 -0.978252042144 0.2073361536193 -0.978252042144 0.0058072320591 9.5056963048e-4
705.0414999999999 0.0056935432172 0.0014869875564 0.2073352081239 -0.978252242524 0.2073352081239 -0.978252242524 0.0058072352228 9.5056404703e-4
705.0419999999999 0.0056935467183 0.0014869829369 0.2073342626282 -0.978252442903 0.2073342626282 -0.978252442903 0.0058072383865 9.5055846356e-4
705.0425000000000 0.0056935502194 0.0014869783175 0.2073333171323 -0.978252643281 0.2073333171323 -0.978252643281 0.0058072415501 9.5055288009e-4
705.0430000000000 0.0056935537204 0.0014869736981 0.2073323716362 -0.978252843659 0.2073323716362 -0.978252843659 0.0058072447138 9.5054729660e-4
705.0435000000000 0.0056935572215 0.0014869690786 0.2073314261399 -0.978253044035 0.2073314261399 -0.978253044035 0.0058072478774 9.5054171310e-4
705.0440000000000 0.0056935607225 0.0014869644592 0.2073304806433 -0.978253244411 0.2073304806433 -0.978253244411 0.0058072510410 9.5053612959e-4
705.0445000000000 0.0056935642236 0.0014869598397 0.2073295351466 -0.978253444785 0.2073295351466 -0.978253444785 0.0058072542046 9.5053054607e-4
705.0450000000000 0.0056935677246 0.0014869552203 0.2073285896497 -0.978253645159 0.2073285896497 -0.978253645159 0.0058072573682 9.5052496253e-4
705.0454999999999 0.0056935712256 0.0014869506008 0.2073276441525 -0.978253845532 0.2073276441525 -0.978253845532 0.0058072605317 9.5051937899e-4
705.0459999999999 0.0056935747266 0.0014869459813 0.2073266986551 -0.978254045903 0.2073266986551 -0.978254045903 0.0058072636953 9.5051379543e-4
705.0464999999999 0.0056935782275 0.0014869413619 0.2073257531576 -0.978254246274 0.2073257531576 -0.978254246274 0.0058072668588 9.5050821187e-4
705.0469999999999 0.0056935817285 0.0014869367424 0.2073248076598 -0.978254446644 0.2073248076598 -0.978254446644 0.0058072700224 9.5050262829e-4
705.0475000000000 0.0056935852294 0.0014869321229 0.2073238621618 -0.978254647013 0.2073238621618 -0.978254647013 0.0058072731859 9.5049704470e-4
705.0480000000000 0.0056935887304 0.0014869275035 0.2073229166636 -0.978254847382 0.2073229166636 -0.978254847382 0.0058072763494 9.5049146109e-4
705.0485000000000 0.0056935922313 0.0014869228840 0.2073219711652 -0.978255047749 0.2073219711652 -0.978255047749 0.0058072795128 9.5048587748e-4
705.0490000000000 0.0056935957322 0.0014869182645 0.2073210256665 -0.978255248115 0.2073210256665 -0.978255248115 0.0058072826763 9.5048029385e-4
705.0495000000000 0.0056935992330 0.0014869136450 0.2073200801677 -0.978255448481 0.2073200801677 -0.978255448481 0.0058072858398 9.5047471022e-4
705.0500000000000 0.0056936027339 0.0014869090255 0.2073191346686 -0.978255648845 0.2073191346686 -0.978255648845 0.0058072890032 9.5046912657e-4
705.0504999999999 0.0056936062348 0.0014869044060 0.2073181891694 -0.978255849209 0.2073181891694 -0.978255849209 0.0058072921666 9.5046354291e-4
705.0509999999999 0.0056936097356 0.0014868997865 0.2073172436699 -0.978256049572 0.2073172436699 -0.978256049572 0.0058072953300 9.5045795924e-4
705.0514999999999 0.0056936132364 0.0014868951670 0.2073162981702 -0.978256249933 0.2073162981702 -0.978256249933 0.0058072984934 9.5045237556e-4
705.0520000000000 0.0056936167372 0.0014868905475 0.2073153526703 -0.978256450294 0.2073153526703 -0.978256450294 0.0058073016568 9.5044679186e-4
705.0525000000000 0.0056936202380 0.0014868859280 0.2073144071702 -0.978256650654 0.2073144071702 -0.978256650654 0.0058073048202 9.5044120816e-4
705.0530000000000 0.0056936237388 0.0014868813085 0.2073134616699 -0.978256851013 0.2073134616699 -0.978256851013 0.0058073079835 9.5043562444e-4
705.0535000000000 0.0056936272396 0.0014868766890 0.2073125161694 -0.978257051372 0.2073125161694 -0.978257051372 0.0058073111468 9.5043004071e-4
705.0540000000000 0.0056936307403 0.0014868720695 0.2073115706687 -0.978257251729 0.2073115706687 -0.978257251729 0.0058073143102 9.5042445697e-4
705.0545000000000 0.0056936342411 0.0014868674500 0.2073106251677 -0.978257452085 0.2073106251677 -0.978257452085 0.0058073174735 9.5041887322e-4
705.0549999999999 0.0056936377418 0.0014868628305 0.2073096796666 -0.978257652441 0.2073096796666 -0.978257652441 0.0058073206368 9.5041328946e-4
705.0554999999999 0.0056936412425 0.0014868582109 0.2073087341652 -0.978257852795 0.2073087341652 -0.978257852795 0.0058073238000 9.5040770568e-4
705.0559999999999 0.0056936447432 0.0014868535914 0.2073077886636 -0.978258053149 0.2073077886636 -0.978258053149 0.0058073269633 9.5040212190e-4
705.0564999999999 0.0056936482439 0.0014868489719 0.2073068431618 -0.978258253502 0.2073068431618 -0.978258253502 0.0058073301265 9.5039653810e-4
705.0570000000000 0.0056936517446 0.0014868443523 0.2073058976598 -0.978258453853 0.2073058976598 -0.978258453853 0.0058073332898 9.5039095429e-4
705.0575000000000 0.0056936552452 0.0014868397328 0.2073049521576 -0.978258654204 0.2073049521576 -0.978258654204 0.0058073364530 9.5038537047e-4
705.0580000000000 0.0056936587458 0.0014868351132 0.2073040066552 -0.978258854554 0.2073040066552 -0.978258854554 0.0058073396162 9.5037978664e-4
705.0585000000000 0.0056936622465 0.0014868304937 0.2073030611526 -0.978259054903 0.2073030611526 -0.978259054903 0.0058073427794 9.5037420279e-4
705.0590000000000 0.0056936657471 0.0014868258742 0.2073021156498 -0.978259255252 0.2073021156498 -0.978259255252 0.0058073459426 9.5036861894e-4
705.0595000000000 0.0056936692477 0.0014868212546 0.2073011701467 -0.978259455599 0.2073011701467 -0.978259455599 0.0058073491057 9.5036303507e-4
705.0599999999999 0.0056936727482 0.0014868166350 0.2073002246434 -0.978259655945 0.2073002246434 -0.978259655945 0.0058073522689 9.5035745119e-4
705.0604999999999 0.0056936762488 0.0014868120155 0.2072992791400 -0.978259856291 0.2072992791400 -0.978259856291 0.0058073554320 9.5035186730e-4
705.0609999999999 0.0056936797494 0.0014868073959 0.2072983336363 -0.978260056635 0.2072983336363 -0.978260056635 0.0058073585951 9.5034628340e-4
705.0615000000000 0.0056936832499 0.0014868027764 0.2072973881324 -0.978260256979 0.2072973881324 -0.978260256979 0.0058073617582 9.5034069949e-4
705.0620000000000 0.0056936867504 0.0014867981568 0.2072964426283 -0.978260457321 0.2072964426283 -0.978260457321 0.0058073649213 9.5033511557e-4
705.0625000000000 0.0056936902509 0.0014867935372 0.2072954971240 -0.978260657663 0.2072954971240 -0.978260657663 0.0058073680844 9.5032953163e-4
705.0630000000000 0.0056936937514 0.0014867889176 0.2072945516195 -0.978260858004 0.2072945516195 -0.978260858004 0.0058073712474 9.5032394768e-4
705.0635000000000 0.0056936972519 0.0014867842981 0.2072936061147 -0.978261058344 0.2072936061147 -0.978261058344 0.0058073744105 9.5031836372e-4
705.0640000000000 0.0056937007523 0.0014867796785 0.2072926606098 -0.978261258683 0.2072926606098 -0.978261258683 0.0058073775735 9.5031277975e-4
705.0645000000000 0.0056937042528 0.0014867750589 0.2072917151046 -0.978261459021 0.2072917151046 -0.978261459021 0.0058073807365 9.5030719577e-4
705.0649999999999 0.0056937077532 0.0014867704393 0.2072907695993 -0.978261659359 0.2072907695993 -0.978261659359 0.0058073838995 9.5030161178e-4
705.0654999999999 0.0056937112536 0.0014867658197 0.2072898240937 -0.978261859695 0.2072898240937 -0.978261859695 0.0058073870625 9.5029602777e-4
705.0659999999999 0.0056937147540 0.0014867612001 0.2072888785879 -0.978262060030 0.2072888785879 -0.978262060030 0.0058073902255 9.5029044376e-4
705.0665000000000 0.0056937182544 0.0014867565805 0.2072879330819 -0.978262260365 0.2072879330819 -0.978262260365 0.0058073933884 9.5028485973e-4
705.0670000000000 0.0056937217548 0.0014867519609 0.2072869875757 -0.978262460698 0.2072869875757 -0.978262460698 0.0058073965514 9.5027927569e-4
705.0675000000000 0.0056937252552 0.0014867473413 0.2072860420693 -0.978262661031 0.2072860420693 -0.978262661031 0.0058073997143 9.5027369164e-4
705.0680000000000 0.0056937287555 0.0014867427217 0.2072850965627 -0.978262861363 0.2072850965627 -0.978262861363 0.0058074028772 9.5026810758e-4
705.0685000000000 0.0056937322558 0.0014867381021 0.2072841510558 -0.978263061694 0.2072841510558 -0.978263061694 0.0058074060401 9.5026252351e-4
705.0690000000000 0.0056937357562 0.0014867334825 0.2072832055488 -0.978263262024 0.2072832055488 -0.978263262024 0.0058074092030 9.5025693942e-4
705.0694999999999 0.0056937392565 0.0014867288628 0.2072822600415 -0.978263462353 0.2072822600415 -0.978263462353 0.0058074123659 9.5025135532e-4
705.0699999999999 0.0056937427567 0.0014867242432 0.2072813145341 -0.978263662681 0.2072813145341 -0.978263662681 0.0058074155287 9.5024577122e-4
705.0704999999999 0.0056937462570 0.0014867196236 0.2072803690264 -0.978263863008 0.2072803690264 -0.978263863008 0.0058074186916 9.5024018710e-4
705.0709999999999 0.0056937497573 0.0014867150040 0.2072794235185 -0.978264063334 0.2072794235185 -0.978264063334 0.0058074218544 9.5023460296e-4
705.0715000000000 0.0056937532575 0.0014867103843 0.2072784780104 -0.978264263660 0.2072784780104 -0.978264263660 0.0058074250172 9.5022901882e-4
705.0720000000000 0.0056937567577 0.0014867057647 0.2072775325021 -0.978264463984 0.2072775325021 -0.978264463984 0.0058074281800 9.5022343467e-4
705.0725000000000 0.0056937602580 0.0014867011451 0.2072765869935 -0.978264664308 0.2072765869935 -0.978264664308 0.0058074313428 9.5021785050e-4
705.0730000000000 0.0056937637582 0.0014866965254 0.2072756414848 -0.978264864631 0.2072756414848 -0.978264864631 0.0058074345055 9.5021226633e-4
705.0735000000000 0.0056937672583 0.0014866919058 0.2072746959759 -0.978265064952 0.2072746959759 -0.978265064952 0.0058074376683 9.5020668214e-4
705.0740000000000 0.0056937707585 0.0014866872861 0.2072737504667 -0.978265265273 0.2072737504667 -0.978265265273 0.0058074408310 9.5020109794e-4
705.0744999999999 0.0056937742587 0.0014866826665 0.2072728049574 -0.978265465593 0.2072728049574 -0.978265465593 0.0058074439937 9.5019551372e-4
705.0749999999999 0.0056937777588 0.0014866780468 0.2072718594478 -0.978265665912 0.2072718594478 -0.978265665912 0.0058074471565 9.5018992950e-4
705.0754999999999 0.0056937812589 0.0014866734272 0.2072709139380 -0.978265866230 0.2072709139380 -0.978265866230 0.0058074503191 9.5018434527e-4
705.0760000000000 0.0056937847591 0.0014866688075 0.2072699684280 -0.978266066548 0.2072699684280 -0.978266066548 0.0058074534818 9.5017876102e-4
705.0765000000000 0.0056937882592 0.0014866641878 0.2072690229178 -0.978266266864 0.2072690229178 -0.978266266864 0.0058074566445 9.5017317676e-4
705.0770000000000 0.0056937917592 0.0014866595682 0.2072680774074 -0.978266467179 0.2072680774074 -0.978266467179 0.0058074598071 9.5016759249e-4
705.0775000000000 0.0056937952593 0.0014866549485 0.2072671318968 -0.978266667494 0.2072671318968 -0.978266667494 0.0058074629698 9.5016200821e-4
705.0780000000000 0.0056937987594 0.0014866503288 0.2072661863859 -0.978266867807 0.2072661863859 -0.978266867807 0.0058074661324 9.5015642392e-4
705.0785000000000 0.0056938022594 0.0014866457091 0.2072652408749 -0.978267068120 0.2072652408749 -0.978267068120 0.0058074692950 9.5015083962e-4
705.0790000000000 0.0056938057594 0.0014866410894 0.2072642953636 -0.978267268432 0.2072642953636 -0.978267268432 0.0058074724576 9.5014525530e-4
705.0794999999999 0.0056938092594 0.0014866364697 0.2072633498521 -0.978267468743 0.2072633498521 -0.978267468743 0.0058074756202 9.5013967097e-4
705.0799999999999 0.0056938127594 0.0014866318501 0.2072624043405 -0.978267669052 0.2072624043405 -0.978267669052 0.0058074787827 9.5013408664e-4
705.0804999999999 0.0056938162594 0.0014866272304 0.2072614588286 -0.978267869361 0.2072614588286 -0.978267869361 0.0058074819453 9.5012850229e-4
705.0810000000000 0.0056938197594 0.0014866226107 0.2072605133165 -0.978268069670 0.2072605133165 -0.978268069670 0.0058074851078 9.5012291793e-4
705.0815000000000 0.0056938232593 0.0014866179910 0.2072595678042 -0.978268269977 0.2072595678042 -0.978268269977 0.0058074882703 9.5011733355e-4
705.0820000000000 0.0056938267593 0.0014866133713 0.2072586222916 -0.978268470283 0.2072586222916 -0.978268470283 0.0058074914328 9.5011174917e-4
705.0825000000000 0.0056938302592 0.0014866087516 0.2072576767789 -0.978268670588 0.2072576767789 -0.978268670588 0.0058074945953 9.5010616477e-4
705.0830000000000 0.0056938337591 0.0014866041318 0.2072567312660 -0.978268870893 0.2072567312660 -0.978268870893 0.0058074977578 9.5010058037e-4
705.0835000000000 0.0056938372590 0.0014865995121 0.2072557857528 -0.978269071197 0.2072557857528 -0.978269071197 0.0058075009203 9.5009499595e-4
705.0839999999999 0.0056938407589 0.0014865948924 0.2072548402395 -0.978269271499 0.2072548402395 -0.978269271499 0.0058075040827 9.5008941152e-4
705.0844999999999 0.0056938442587 0.0014865902727 0.2072538947259 -0.978269471801 0.2072538947259 -0.978269471801 0.0058075072451 9.5008382707e-4
705.0849999999999 0.0056938477586 0.0014865856530 0.2072529492121 -0.978269672102 0.2072529492121 -0.978269672102 0.0058075104076 9.5007824262e-4
705.0855000000000 0.0056938512584 0.0014865810332 0.2072520036981 -0.978269872402 0.2072520036981 -0.978269872402 0.0058075135700 9.5007265816e-4
705.0860000000000 0.0056938547582 0.0014865764135 0.2072510581839 -0.978270072701 0.2072510581839 -0.978270072701 0.0058075167323 9.5006707368e-4
705.0865000000000 0.0056938582580 0.0014865717938 0.2072501126695 -0.978270272999 0.2072501126695 -0.978270272999 0.0058075198947 9.5006148919e-4
705.0870000000000 0.0056938617578 0.0014865671740 0.2072491671549 -0.978270473296 0.2072491671549 -0.978270473296 0.0058075230571 9.5005590469e-4
705.0875000000000 0.0056938652576 0.0014865625543 0.2072482216400 -0.978270673592 0.2072482216400 -0.978270673592 0.0058075262194 9.5005032018e-4
705.0880000000000 0.0056938687574 0.0014865579346 0.2072472761250 -0.978270873888 0.2072472761250 -0.978270873888 0.0058075293818 9.5004473566e-4
705.0885000000000 0.0056938722571 0.0014865533148 0.2072463306097 -0.978271074182 0.2072463306097 -0.978271074182 0.0058075325441 9.5003915112e-4
705.0889999999999 0.0056938757569 0.0014865486951 0.2072453850942 -0.978271274476 0.2072453850942 -0.978271274476 0.0058075357064 9.5003356658e-4
705.0894999999999 0.0056938792566 0.0014865440753 0.2072444395786 -0.978271474768 0.2072444395786 -0.978271474768 0.0058075388687 9.5002798202e-4
705.0899999999999 0.0056938827563 0.0014865394556 0.2072434940627 -0.978271675060 0.2072434940627 -0.978271675060 0.0058075420309 9.5002239745e-4
705.0905000000000 0.0056938862560 0.0014865348358 0.2072425485466 -0.978271875351 0.2072425485466 -0.978271875351 0.0058075451932 9.5001681287e-4
705.0910000000000 0.0056938897556 0.0014865302160 0.2072416030303 -0.978272075641 0.2072416030303 -0.978272075641 0.0058075483554 9.5001122828e-4
705.0915000000000 0.0056938932553 0.0014865255963 0.2072406575138 -0.978272275930 0.2072406575138 -0.978272275930 0.0058075515177 9.5000564368e-4
705.0920000000000 0.0056938967549 0.0014865209765 0.2072397119970 -0.978272476218 0.2072397119970 -0.978272476218 0.0058075546799 9.5000005906e-4
705.0925000000000 0.0056939002546 0.0014865163567 0.2072387664801 -0.978272676505 0.2072387664801 -0.978272676505 0.0058075578421 9.4999447444e-4
705.0930000000000 0.0056939037542 0.0014865117369 0.2072378209629 -0.978272876791 0.2072378209629 -0.978272876791 0.0058075610042 9.4998888980e-4
705.0934999999999 0.0056939072538 0.0014865071172 0.2072368754456 -0.978273077077 0.2072368754456 -0.978273077077 0.0058075641664 9.4998330515e-4
705.0939999999999 0.0056939107534 0.0014865024974 0.2072359299280 -0.978273277361 0.2072359299280 -0.978273277361 0.0058075673286 9.4997772049e-4
705.0944999999999 0.0056939142530 0.0014864978776 0.2072349844102 -0.978273477644 0.2072349844102 -0.978273477644 0.0058075704907 9.4997213582e-4
705.0949999999999 0.0056939177525 0.0014864932578 0.2072340388922 -0.978273677927 0.2072340388922 -0.978273677927 0.0058075736528 9.4996655113e-4
705.0955000000000 0.0056939212521 0.0014864886380 0.2072330933740 -0.978273878209 0.2072330933740 -0.978273878209 0.0058075768149 9.4996096644e-4
705.0960000000000 0.0056939247516 0.0014864840182 0.2072321478556 -0.978274078490 0.2072321478556 -0.978274078490 0.0058075799770 9.4995538173e-4